ITEM: TIMESTEP
26000000
ITEM: NUMBER OF ATOMS
256
ITEM: BOX BOUNDS pp pp pp
0.0000000000000000e+00 1.6184000000000001e+01
0.0000000000000000e+00 1.6184000000000001e+01
0.0000000000000000e+00 1.6184000000000001e+01
ITEM: ATOMS id type x y z vx vy vz
1 1 2.22307 5.72931 2.37005 0.783445 -3.01551 -4.19593
2 1 4.24607 7.75231 2.37005 0.783438 -3.01551 -4.19593
3 1 2.22307 7.75231 4.39305 0.783444 -3.01551 -4.19593
4 1 4.24607 5.72931 4.39305 0.783444 -3.01551 -4.19593
5 1 6.26907 5.72931 2.37005 0.783439 -3.01551 -4.19593
6 1 8.29207 7.75231 2.37005 0.783442 -3.01551 -4.19593
7 1 6.26907 7.75231 4.39305 0.783441 -3.01551 -4.19593
8 1 8.29207 5.72931 4.39305 0.783441 -3.0155 -4.19593
9 1 10.3151 5.72931 2.37005 0.78344 -3.01551 -4.19593
10 1 12.3381 7.75231 2.37005 0.783445 -3.01551 -4.19593
11 1 10.3151 7.75231 4.39305 0.783439 -3.01551 -4.19593
12 1 12.3381 5.72931 4.39305 0.783441 -3.0155 -4.19593
13 1 14.3611 5.72931 2.37005 0.783445 -3.01551 -4.19593
14 1 0.200067 7.75231 2.37005 0.783442 -3.01551 -4.19593
15 1 14.3611 7.75231 4.39305 0.783437 -3.01551 -4.19594
16 1 0.200067 5.72931 4.39305 0.783442 -3.01551 -4.19593
17 1 2.22307 9.77531 2.37005 0.783442 -3.01551 -4.19594
18 1 4.24607 11.7983 2.37005 0.783443 -3.01551 -4.19594
19 1 2.22307 11.7983 4.39305 0.783443 -3.0155 -4.19594
20 1 4.24607 9.77531 4.39305 0.783441 -3.0155 -4.19594
21 1 6.26907 9.77531 2.37005 0.783437 -3.01551 -4.19594
22 1 8.29207 11.7983 2.37005 0.783449 -3.01551 -4.19593
23 1 6.26907 11.7983 4.39305 0.783439 -3.01551 -4.19593
24 1 8.29207 9.77531 4.39305 0.783436 -3.01551 -4.19594
25 1 10.3151 9.77531 2.37005 0.78344 -3.01551 -4.19593
26 1 12.3381 11.7983 2.37005 0.783434 -3.01551 -4.19594
27 1 10.3151 11.7983 4.39305 0.78344 -3.01552 -4.19593
28 1 12.3381 9.77531 4.39305 0.783446 -3.01551 -4.19593
29 1 14.3611 9.77531 2.37005 0.783428 -3.0155 -4.19593
30 1 0.200067 11.7983 2.37005 0.783444 -3.0155 -4.19594
31 1 14.3611 11.7983 4.39305 0.783439 -3.0155 -4.19594
32 1 0.200067 9.77531 4.39305 0.783442 -3.0155 -4.19594
33 1 2.22307 13.8213 2.37005 0.783443 -3.01551 -4.19593
34 1 4.24607 15.8443 2.37005 0.783437 -3.01551 -4.19594
35 1 2.22307 15.8443 4.39305 0.78344 -3.01551 -4.19594
36 1 4.24607 13.8213 4.39305 0.783447 -3.01551 -4.19594
37 1 6.26907 13.8213 2.37005 0.783441 -3.01551 -4.19593
38 1 8.29207 15.8443 2.37005 0.783435 -3.01551 -4.19594
39 1 6.26907 15.8443 4.39305 0.783444 -3.01551 -4.19594
40 1 8.29207 13.8213 4.39305 0.783442 -3.01551 -4.19592
41 1 10.3151 13.8213 2.37005 0.783439 -3.01551 -4.19593
42 1 12.3381 15.8443 2.37005 0.783438 -3.0155 -4.19593
43 1 10.3151 15.8443 4.39305 0.78344 -3.01551 -4.19593
44 1 12.3381 13.8213 4.39305 0.783436 -3.01551 -4.19594
45 1 14.3611 13.8213 2.37005 0.783441 -3.01551 -4.19594
46 1 0.200067 15.8443 2.37005 0.783441 -3.01551 -4.19593
47 1 14.3611 15.8443 4.39305 0.783439 -3.01551 -4.19594
48 1 0.200067 13.8213 4.39305 0.783442 -3.01551 -4.19594
49 1 2.22307 1.68331 2.37005 0.783436 -3.01551 -4.19594
50 1 4.24607 3.70631 2.37005 0.783442 -3.01551 -4.19593
51 1 2.22307 3.70631 4.39305 0.783438 -3.01551 -4.19593
52 1 4.24607 1.68331 4.39305 0.783438 -3.01551 -4.19593
53 1 6.26907 1.68331 2.37005 0.783434 -3.01552 -4.19593
54 1 8.29207 3.70631 2.37005 0.783441 -3.01551 -4.19593
55 1 6.26907 3.70631 4.39305 0.783443 -3.01551 -4.19593
56 1 8.29207 1.68331 4.39305 0.783439 -3.01551 -4.19594
57 1 10.3151 1.68331 2.37005 0.783443 -3.01551 -4.19594
58 1 12.3381 3.70631 2.37005 0.783441 -3.01551 -4.19594
59 1 10.3151 3.70631 4.39305 0.783438 -3.01551 -4.19593
60 1 12.3381 1.68331 4.39305 0.783437 -3.01551 -4.19593
61 1 14.3611 1.68331 2.37005 0.783438 -3.01551 -4.19593
62 1 0.200067 3.70631 2.37005 0.783444 -3.01551 -4.19593
63 1 14.3611 3.70631 4.39305 0.783443 -3.01551 -4.19593
64 1 0.200067 1.68331 4.39305 0.783442 -3.01551 -4.19594
65 1 2.22307 5.72931 6.41605 0.783439 -3.01551 -4.19593
66 1 4.24607 7.75231 6.41605 0.783445 -3.01551 -4.19593
67 1 2.22307 7.75231 8.43905 0.783442 -3.01551 -4.19593
68 1 4.24607 5.72931 8.43905 0.783441 -3.01551 -4.19593
69 1 6.26907 5.72931 6.41605 0.783444 -3.0155 -4.19593
70 1 8.29207 7.75231 6.41605 0.783445 -3.0155 -4.19593
71 1 6.26907 7.75231 8.43905 0.783441 -3.01551 -4.19593
72 1 8.29207 5.72931 8.43905 0.783446 -3.01551 -4.19594
73 1 10.3151 5.72931 6.41605 0.783439 -3.01551 -4.19593
74 1 12.3381 7.75231 6.41605 0.783446 -3.01551 -4.19593
75 1 10.3151 7.75231 8.43905 0.78344 -3.01551 -4.19594
76 1 12.3381 5.72931 8.43905 0.78344 -3.0155 -4.19593
77 1 14.3611 5.72931 6.41605 0.783441 -3.01551 -4.19593
78 1 0.200067 7.75231 6.41605 0.783434 -3.0155 -4.19594
79 1 14.3611 7.75231 8.43905 0.783439 -3.01551 -4.19593
80 1 0.200067 5.72931 8.43905 0.783437 -3.01551 -4.19593
81 1 2.22307 9.77531 6.41605 0.783439 -3.01551 -4.19594
82 1 4.24607 11.7983 6.41605 0.783442 -3.01551 -4.19593
83 1 2.22307 11.7983 8.43905 0.783445 -3.01551 -4.19593
84 1 4.24607 9.77531 8.43905 0.78344 -3.01551 -4.19593
85 1 6.26907 9.77531 6.41605 0.783441 -3.01551 -4.19593
86 1 8.29207 11.7983 6.41605 0.783441 -3.01551 -4.19594
87 1 6.26907 11.7983 8.43905 0.783435 -3.01551 -4.19594
88 1 8.29207 9.77531 8.43905 0.783444 -3.01551 -4.19593
89 1 10.3151 9.77531 6.41605 0.783439 -3.01551 -4.19594
90 1 12.3381 11.7983 6.41605 0.783429 -3.01551 -4.19593
91 1 10.3151 11.7983 8.43905 0.783441 -3.01551 -4.19593
92 1 12.3381 9.77531 8.43905 0.783437 -3.01551 -4.19593
93 1 14.3611 9.77531 6.41605 0.783442 -3.0155 -4.19593
94 1 0.200067 11.7983 6.41605 0.783444 -3.01551 -4.19593
95 1 14.3611 11.7983 8.43905 0.783437 -3.01551 -4.19593
96 1 0.200067 9.77531 8.43905 0.783444 -3.01551 -4.19593
97 1 2.22307 13.8213 6.41605 0.783437 -3.01551 -4.19593
98 1 4.24607 15.8443 6.41605 0.783437 -3.01551 -4.19593
99 1 2.22307 15.8443 8.43905 0.783444 -3.01551 -4.19593
100 1 4.24607 13.8213 8.43905 0.783437 -3.01551 -4.19594
101 1 6.26907 13.8213 6.41605 0.783438 -3.01551 -4.19593
102 1 8.29207 15.8443 6.41605 0.783439 -3.01551 -4.19593
103 1 6.26907 15.8443 8.43905 0.783433 -3.01551 -4.19593
104 1 8.29207 13.8213 8.43905 0.783439 -3.01551 -4.19594
105 1 10.3151 13.8213 6.41605 0.783437 -3.01551 -4.19593
106 1 12.3381 15.8443 6.41605 0.783443 -3.01551 -4.19593
107 1 10.3151 15.8443 8.43905 0.783444 -3.01551 -4.19593
108 1 12.3381 13.8213 8.43905 0.783446 -3.01551 -4.19593
109 1 14.3611 13.8213 6.41605 0.783438 -3.01551 -4.19594
110 1 0.200067 15.8443 6.41605 0.783438 -3.0155 -4.19594
111 1 14.3611 15.8443 8.43905 0.783444 -3.0155 -4.19594
112 1 0.200067 13.8213 8.43905 0.783446 -3.01551 -4.19594
113 1 2.22307 1.68331 6.41605 0.783438 -3.01551 -4.19593
114 1 4.24607 3.70631 6.41605 0.783442 -3.01551 -4.19593
115 1 2.22307 3.70631 8.43905 0.783439 -3.01551 -4.19593
116 1 4.24607 1.68331 8.43905 0.783437 -3.01551 -4.19593
117 1 6.26907 1.68331 6.41605 0.78344 -3.01551 -4.19593
118 1 8.29207 3.70631 6.41605 0.783437 -3.01551 -4.19593
119 1 6.26907 3.70631 8.43905 0.783437 -3.01551 -4.19594
120 1 8.29207 1.68331 8.43905 0.783438 -3.0155 -4.19593
121 1 10.3151 1.68331 6.41605 0.783436 -3.01551 -4.19593
122 1 12.3381 3.70631 6.41605 0.78344 -3.01551 -4.19593
123 1 10.3151 3.70631 8.43905 0.783441 -3.01551 -4.19593
124 1 12.3381 1.68331 8.43905 0.783443 -3.01551 -4.19594
125 1 14.3611 1.68331 6.41605 0.783444 -3.01551 -4.19594
126 1 0.200067 3.70631 6.41605 0.783438 -3.01551 -4.19593
127 1 14.3611 3.70631 8.43905 0.78345 -3.0155 -4.19593
128 1 0.200067 1.68331 8.43905 0.783436 -3.01551 -4.19593
129 1 2.22307 5.72931 10.4621 0.783445 -3.0155 -4.19593
130 1 4.24607 7.75231 10.4621 0.783445 -3.0155 -4.19593
131 1 2.22307 7.75231 12.4851 0.783444 -3.01551 -4.19594
132 1 4.24607 5.72931 12.4851 0.783442 -3.01551 -4.19593
133 1 6.26907 5.72931 10.4621 0.783445 -3.01551 -4.19593
134 1 8.29207 7.75231 10.4621 0.783442 -3.01551 -4.19593
135 1 6.26907 7.75231 12.4851 0.783441 -3.01551 -4.19594
136 1 8.29207 5.72931 12.4851 0.783441 -3.01551 -4.19593
137 1 10.3151 5.72931 10.4621 0.78344 -3.01551 -4.19593
138 1 12.3381 7.75231 10.4621 0.783439 -3.01551 -4.19593
139 1 10.3151 7.75231 12.4851 0.78344 -3.01551 -4.19594
140 1 12.3381 5.72931 12.4851 0.783445 -3.01551 -4.19593
141 1 14.3611 5.72931 10.4621 0.783442 -3.01551 -4.19594
142 1 0.200067 7.75231 10.4621 0.783444 -3.0155 -4.19593
143 1 14.3611 7.75231 12.4851 0.783446 -3.0155 -4.19593
144 1 0.200067 5.72931 12.4851 0.783435 -3.01551 -4.19593
145 1 2.22307 9.77531 10.4621 0.783444 -3.01551 -4.19593
146 1 4.24607 11.7983 10.4621 0.783439 -3.01552 -4.19593
147 1 2.22307 11.7983 12.4851 0.783446 -3.0155 -4.19593
148 1 4.24607 9.77531 12.4851 0.783443 -3.01551 -4.19593
149 1 6.26907 9.77531 10.4621 0.78344 -3.01551 -4.19593
150 1 8.29207 11.7983 10.4621 0.783437 -3.01551 -4.19594
151 1 6.26907 11.7983 12.4851 0.783442 -3.0155 -4.19593
152 1 8.29207 9.77531 12.4851 0.783438 -3.01551 -4.19593
153 1 10.3151 9.77531 10.4621 0.783448 -3.01551 -4.19593
154 1 12.3381 11.7983 10.4621 0.78344 -3.01551 -4.19594
155 1 10.3151 11.7983 12.4851 0.783432 -3.0155 -4.19594
156 1 12.3381 9.77531 12.4851 0.783442 -3.01551 -4.19594
157 1 14.3611 9.77531 10.4621 0.783442 -3.01551 -4.19593
158 1 0.200067 11.7983 10.4621 0.783446 -3.01551 -4.19593
159 1 14.3611 11.7983 12.4851 0.78344 -3.01551 -4.19593
160 1 0.200067 9.77531 12.4851 0.783439 -3.0155 -4.19593
161 1 2.22307 13.8213 10.4621 0.783441 -3.0155 -4.19593
162 1 4.24607 15.8443 10.4621 0.783441 -3.01551 -4.19593
163 1 2.22307 15.8443 12.4851 0.783443 -3.01551 -4.19593
164 1 4.24607 13.8213 12.4851 0.783439 -3.01551 -4.19593
165 1 6.26907 13.8213 10.4621 0.783443 -3.01551 -4.19593
166 1 8.29207 15.8443 10.4621 0.783444 -3.01551 -4.19593
167 1 6.26907 15.8443 12.4851 0.783438 -3.01551 -4.19593
168 1 8.29207 13.8213 12.4851 0.78344 -3.01551 -4.19594
169 1 10.3151 13.8213 10.4621 0.783439 -3.01551 -4.19593
170 1 12.3381 15.8443 10.4621 0.783449 -3.0155 -4.19593
171 1 10.3151 15.8443 12.4851 0.783447 -3.01551 -4.19594
172 1 12.3381 13.8213 12.4851 0.78344 -3.01552 -4.19594
173 1 14.3611 13.8213 10.4621 0.783439 -3.01551 -4.19594
174 1 0.200067 15.8443 10.4621 0.78344 -3.01551 -4.19593
175 1 14.3611 15.8443 12.4851 0.783438 -3.01551 -4.19593
176 1 0.200067 13.8213 12.4851 0.78344 -3.01551 -4.19594
177 1 2.22307 1.68331 10.4621 0.78344 -3.01551 -4.19593
178 1 4.24607 3.70631 10.4621 0.783437 -3.01551 -4.19593
179 1 2.22307 3.70631 12.4851 0.783438 -3.01551 -4.19594
180 1 4.24607 1.68331 12.4851 0.783444 -3.01551 -4.19593
181 1 6.26907 1.68331 10.4621 0.783439 -3.01551 -4.19594
182 1 8.29207 3.70631 10.4621 0.783441 -3.01551 -4.19593
183 1 6.26907 3.70631 12.4851 0.78344 -3.01551 -4.19593
184 1 8.29207 1.68331 12.4851 0.783447 -3.01551 -4.19593
185 1 10.3151 1.68331 10.4621 0.783443 -3.0155 -4.19593
186 1 12.3381 3.70631 10.4621 0.783442 -3.01551 -4.19594
187 1 10.3151 3.70631 12.4851 0.783439 -3.01551 -4.19594
188 1 12.3381 1.68331 12.4851 0.78344 -3.01551 -4.19593
189 1 14.3611 1.68331 10.4621 0.783445 -3.01551 -4.19593
190 1 0.200067 3.70631 10.4621 0.783437 -3.01551 -4.19593
191 1 14.3611 3.70631 12.4851 0.783438 -3.01551 -4.19593
192 1 0.200067 1.68331 12.4851 0.783435 -3.01551 -4.19593
193 1 2.22307 5.72931 14.5081 0.78344 -3.01551 -4.19593
194 1 4.24607 7.75231 14.5081 0.78344 -3.0155 -4.19593
195 1 2.22307 7.75231 0.347053 0.783439 -3.0155 -4.19593
196 1 4.24607 5.72931 0.347053 0.783441 -3.0155 -4.19593
197 1 6.26907 5.72931 14.5081 0.783439 -3.0155 -4.19593
198 1 8.29207 7.75231 14.5081 0.783441 -3.01551 -4.19593
199 1 6.26907 7.75231 0.347053 0.783438 -3.01551 -4.19593
200 1 8.29207 5.72931 0.347053 0.783443 -3.0155 -4.19593
201 1 10.3151 5.72931 14.5081 0.783443 -3.01552 -4.19593
202 1 12.3381 7.75231 14.5081 0.78344 -3.01551 -4.19593
203 1 10.3151 7.75231 0.347053 0.783439 -3.0155 -4.19593
204 1 12.3381 5.72931 0.347053 0.783436 -3.01551 -4.19593
205 1 14.3611 5.72931 14.5081 0.783445 -3.01551 -4.19593
206 1 0.200067 7.75231 14.5081 0.783437 -3.01551 -4.19594
207 1 14.3611 7.75231 0.347053 0.783449 -3.0155 -4.19593
208 1 0.200067 5.72931 0.347053 0.783441 -3.01551 -4.19593
209 1 2.22307 9.77531 14.5081 0.783443 -3.01551 -4.19594
210 1 4.24607 11.7983 14.5081 0.783446 -3.01551 -4.19593
211 1 2.22307 11.7983 0.347053 0.783441 -3.01551 -4.19594
212 1 4.24607 9.77531 0.347053 0.783438 -3.01552 -4.19593
213 1 6.26907 9.77531 14.5081 0.783445 -3.0155 -4.19593
214 1 8.29207 11.7983 14.5081 0.783439 -3.01551 -4.19593
215 1 6.26907 11.7983 0.347053 0.78344 -3.01551 -4.19593
216 1 8.29207 9.77531 0.347053 0.783441 -3.01551 -4.19593
217 1 10.3151 9.77531 14.5081 0.78344 -3.01551 -4.19593
218 1 12.3381 11.7983 14.5081 0.783444 -3.01551 -4.19593
219 1 10.3151 11.7983 0.347053 0.783435 -3.01551 -4.19594
220 1 12.3381 9.77531 0.347053 0.78344 -3.01551 -4.19593
221 1 14.3611 9.77531 14.5081 0.783443 -3.01551 -4.19594
222 1 0.200067 11.7983 14.5081 0.783439 -3.01551 -4.19594
223 1 14.3611 11.7983 0.347053 0.783436 -3.01551 -4.19593
224 1 0.200067 9.77531 0.347053 0.783445 -3.01551 -4.19594
225 1 2.22307 13.8213 14.5081 0.783442 -3.01551 -4.19593
226 1 4.24607 15.8443 14.5081 0.783438 -3.0155 -4.19594
227 1 2.22307 15.8443 0.347053 0.783439 -3.0155 -4.19593
228 1 4.24607 13.8213 0.347053 0.783434 -3.01551 -4.19594
229 1 6.26907 13.8213 14.5081 0.783443 -3.01551 -4.19594
230 1 8.29207 15.8443 14.5081 0.783447 -3.01551 -4.19594
231 1 6.26907 15.8443 0.347053 0.783442 -3.01551 -4.19594
232 1 8.29207 13.8213 0.347053 0.783441 -3.01551 -4.19593
233 1 10.3151 13.8213 14.5081 0.783445 -3.01552 -4.19593
234 1 12.3381 15.8443 14.5081 0.783442 -3.01551 -4.19593
235 1 10.3151 15.8443 0.347053 0.783438 -3.01551 -4.19593
236 1 12.3381 13.8213 0.347053 0.783434 -3.01551 -4.19593
237 1 14.3611 13.8213 14.5081 0.783435 -3.01551 -4.19594
238 1 0.200067 15.8443 14.5081 0.783439 -3.01551 -4.19594
239 1 14.3611 15.8443 0.347053 0.783439 -3.01551 -4.19593
240 1 0.200067 13.8213 0.347053 0.783441 -3.01551 -4.19594
241 1 2.22307 1.68331 14.5081 0.783442 -3.01551 -4.19593
242 1 4.24607 3.70631 14.5081 0.78344 -3.01551 -4.19593
243 1 2.22307 3.70631 0.347053 0.783435 -3.01551 -4.19594
244 1 4.24607 1.68331 0.347053 0.783441 -3.01551 -4.19593
245 1 6.26907 1.68331 14.5081 0.78344 -3.01551 -4.19594
246 1 8.29207 3.70631 14.5081 0.783439 -3.01551 -4.19593
247 1 6.26907 3.70631 0.347053 0.783439 -3.01551 -4.19593
248 1 8.29207 1.68331 0.347053 0.78344 -3.01551 -4.19593
249 1 10.3151 1.68331 14.5081 0.783441 -3.01551 -4.19593
250 1 12.3381 3.70631 14.5081 0.783443 -3.01551 -4.19593
251 1 10.3151 3.70631 0.347053 0.783436 -3.0155 -4.19593
252 1 12.3381 1.68331 0.347053 0.783436 -3.01551 -4.19594
253 1 14.3611 1.68331 14.5081 0.783436 -3.0155 -4.19594
254 1 0.200067 3.70631 14.5081 0.783443 -3.01551 -4.19593
255 1 14.3611 3.70631 0.347053 0.783441 -3.01551 -4.19593
256 1 0.200067 1.68331 0.347053 0.783444 -3.01551 -4.19593
