ITEM: TIMESTEP
18000000
ITEM: NUMBER OF ATOMS
256
ITEM: BOX BOUNDS pp pp pp
0.0000000000000000e+00 1.6184000000000001e+01
0.0000000000000000e+00 1.6184000000000001e+01
0.0000000000000000e+00 1.6184000000000001e+01
ITEM: ATOMS id type x y z vx vy vz
1 1 7.0184 10.1939 11.4978 0.815294 -3.13813 -4.36655
2 1 9.0414 12.2169 11.4978 0.815298 -3.13813 -4.36655
3 1 7.0184 12.2169 13.5208 0.815298 -3.13814 -4.36656
4 1 9.0414 10.1939 13.5208 0.815298 -3.13813 -4.36655
5 1 11.0644 10.1939 11.4978 0.815292 -3.13813 -4.36655
6 1 13.0874 12.2169 11.4978 0.8153 -3.13814 -4.36656
7 1 11.0644 12.2169 13.5208 0.815295 -3.13813 -4.36655
8 1 13.0874 10.1939 13.5208 0.815297 -3.13813 -4.36655
9 1 15.1104 10.1939 11.4978 0.815294 -3.13813 -4.36655
10 1 0.949404 12.2169 11.4978 0.8153 -3.13813 -4.36655
11 1 15.1104 12.2169 13.5208 0.815302 -3.13813 -4.36656
12 1 0.949404 10.1939 13.5208 0.815293 -3.13813 -4.36656
13 1 2.9724 10.1939 11.4978 0.815298 -3.13813 -4.36656
14 1 4.9954 12.2169 11.4978 0.815297 -3.13813 -4.36656
15 1 2.9724 12.2169 13.5208 0.815299 -3.13813 -4.36655
16 1 4.9954 10.1939 13.5208 0.815295 -3.13814 -4.36656
17 1 7.0184 14.2399 11.4978 0.8153 -3.13813 -4.36655
18 1 9.0414 0.0789351 11.4978 0.815292 -3.13813 -4.36656
19 1 7.0184 0.0789348 13.5208 0.815296 -3.13813 -4.36656
20 1 9.0414 14.2399 13.5208 0.815297 -3.13813 -4.36655
21 1 11.0644 14.2399 11.4978 0.815296 -3.13813 -4.36656
22 1 13.0874 0.078935 11.4978 0.815301 -3.13812 -4.36656
23 1 11.0644 0.078935 13.5208 0.8153 -3.13812 -4.36655
24 1 13.0874 14.2399 13.5208 0.815299 -3.13813 -4.36656
25 1 15.1104 14.2399 11.4978 0.8153 -3.13813 -4.36655
26 1 0.949404 0.078935 11.4978 0.815302 -3.13812 -4.36656
27 1 15.1104 0.0789352 13.5208 0.815294 -3.13814 -4.36656
28 1 0.949404 14.2399 13.5208 0.815294 -3.13813 -4.36655
29 1 2.9724 14.2399 11.4978 0.815298 -3.13813 -4.36656
30 1 4.9954 0.0789349 11.4978 0.815293 -3.13812 -4.36656
31 1 2.9724 0.078935 13.5208 0.815296 -3.13813 -4.36656
32 1 4.9954 14.2399 13.5208 0.815302 -3.13813 -4.36656
33 1 7.0184 2.10193 11.4978 0.815291 -3.13813 -4.36656
34 1 9.0414 4.12493 11.4978 0.815303 -3.13812 -4.36655
35 1 7.0184 4.12493 13.5208 0.815294 -3.13813 -4.36656
36 1 9.0414 2.10193 13.5208 0.8153 -3.13813 -4.36655
37 1 11.0644 2.10193 11.4978 0.8153 -3.13814 -4.36656
38 1 13.0874 4.12494 11.4978 0.815297 -3.13813 -4.36655
39 1 11.0644 4.12494 13.5208 0.815301 -3.13813 -4.36655
40 1 13.0874 2.10194 13.5208 0.815296 -3.13813 -4.36655
41 1 15.1104 2.10193 11.4978 0.815297 -3.13813 -4.36656
42 1 0.949404 4.12493 11.4978 0.8153 -3.13813 -4.36655
43 1 15.1104 4.12494 13.5208 0.815304 -3.13813 -4.36655
44 1 0.949404 2.10194 13.5208 0.815298 -3.13813 -4.36655
45 1 2.9724 2.10193 11.4978 0.815305 -3.13813 -4.36656
46 1 4.9954 4.12494 11.4978 0.815299 -3.13813 -4.36655
47 1 2.9724 4.12494 13.5208 0.815295 -3.13813 -4.36655
48 1 4.9954 2.10194 13.5208 0.815304 -3.13813 -4.36656
49 1 7.0184 6.14793 11.4978 0.815299 -3.13813 -4.36655
50 1 9.0414 8.17094 11.4978 0.815298 -3.13812 -4.36656
51 1 7.0184 8.17093 13.5208 0.815296 -3.13813 -4.36655
52 1 9.0414 6.14794 13.5208 0.815297 -3.13813 -4.36655
53 1 11.0644 6.14794 11.4978 0.815301 -3.13813 -4.36656
54 1 13.0874 8.17094 11.4978 0.815296 -3.13813 -4.36656
55 1 11.0644 8.17094 13.5208 0.8153 -3.13813 -4.36656
56 1 13.0874 6.14794 13.5208 0.8153 -3.13813 -4.36656
57 1 15.1104 6.14794 11.4978 0.815302 -3.13813 -4.36655
58 1 0.949404 8.17094 11.4978 0.815299 -3.13813 -4.36656
59 1 15.1104 8.17093 13.5208 0.815302 -3.13813 -4.36655
60 1 0.949404 6.14793 13.5208 0.815296 -3.13813 -4.36655
61 1 2.9724 6.14793 11.4978 0.815301 -3.13813 -4.36655
62 1 4.9954 8.17093 11.4978 0.815299 -3.13813 -4.36656
63 1 2.9724 8.17093 13.5208 0.815294 -3.13813 -4.36656
64 1 4.9954 6.14794 13.5208 0.815291 -3.13813 -4.36656
65 1 7.0184 10.1939 15.5438 0.815298 -3.13813 -4.36656
66 1 9.0414 12.2169 15.5438 0.815303 -3.13813 -4.36655
67 1 7.0184 12.2169 1.38277 0.815302 -3.13813 -4.36656
68 1 9.0414 10.1939 1.38277 0.815295 -3.13813 -4.36656
69 1 11.0644 10.1939 15.5438 0.815294 -3.13813 -4.36655
70 1 13.0874 12.2169 15.5438 0.815294 -3.13813 -4.36655
71 1 11.0644 12.2169 1.38277 0.815303 -3.13813 -4.36655
72 1 13.0874 10.1939 1.38277 0.815298 -3.13813 -4.36656
73 1 15.1104 10.1939 15.5438 0.815298 -3.13814 -4.36655
74 1 0.949404 12.2169 15.5438 0.815295 -3.13813 -4.36656
75 1 15.1104 12.2169 1.38277 0.815295 -3.13813 -4.36656
76 1 0.949404 10.1939 1.38277 0.815298 -3.13813 -4.36656
77 1 2.9724 10.1939 15.5438 0.815304 -3.13813 -4.36655
78 1 4.9954 12.2169 15.5438 0.815298 -3.13813 -4.36656
79 1 2.9724 12.2169 1.38277 0.815299 -3.13813 -4.36655
80 1 4.9954 10.1939 1.38277 0.815293 -3.13813 -4.36656
81 1 7.0184 14.2399 15.5438 0.815298 -3.13813 -4.36655
82 1 9.0414 0.0789349 15.5438 0.815299 -3.13812 -4.36655
83 1 7.0184 0.078935 1.38277 0.815298 -3.13813 -4.36655
84 1 9.0414 14.2399 1.38277 0.815297 -3.13814 -4.36655
85 1 11.0644 14.2399 15.5438 0.815294 -3.13813 -4.36655
86 1 13.0874 0.078935 15.5438 0.815299 -3.13813 -4.36655
87 1 11.0644 0.0789349 1.38277 0.815297 -3.13813 -4.36656
88 1 13.0874 14.2399 1.38277 0.815303 -3.13813 -4.36656
89 1 15.1104 14.2399 15.5438 0.815298 -3.13813 -4.36655
90 1 0.949404 0.0789351 15.5438 0.815299 -3.13812 -4.36656
91 1 15.1104 0.078935 1.38277 0.815299 -3.13813 -4.36656
92 1 0.949404 14.2399 1.38277 0.815295 -3.13813 -4.36656
93 1 2.9724 14.2399 15.5438 0.815292 -3.13813 -4.36655
94 1 4.9954 0.0789349 15.5438 0.815296 -3.13813 -4.36655
95 1 2.9724 0.0789351 1.38277 0.8153 -3.13813 -4.36656
96 1 4.9954 14.2399 1.38277 0.815301 -3.13813 -4.36655
97 1 7.0184 2.10193 15.5438 0.815303 -3.13813 -4.36656
98 1 9.0414 4.12494 15.5438 0.815299 -3.13813 -4.36655
99 1 7.0184 4.12493 1.38277 0.815295 -3.13813 -4.36656
100 1 9.0414 2.10193 1.38277 0.815298 -3.13812 -4.36656
101 1 11.0644 2.10194 15.5438 0.815294 -3.13813 -4.36656
102 1 13.0874 4.12494 15.5438 0.815297 -3.13813 -4.36656
103 1 11.0644 4.12493 1.38277 0.815301 -3.13812 -4.36656
104 1 13.0874 2.10193 1.38277 0.815296 -3.13813 -4.36655
105 1 15.1104 2.10194 15.5438 0.815305 -3.13812 -4.36655
106 1 0.949404 4.12493 15.5438 0.815298 -3.13813 -4.36656
107 1 15.1104 4.12493 1.38277 0.815293 -3.13813 -4.36656
108 1 0.949404 2.10193 1.38277 0.815299 -3.13813 -4.36656
109 1 2.9724 2.10194 15.5438 0.815295 -3.13813 -4.36655
110 1 4.9954 4.12494 15.5438 0.815296 -3.13813 -4.36655
111 1 2.9724 4.12494 1.38277 0.815301 -3.13813 -4.36655
112 1 4.9954 2.10193 1.38277 0.815301 -3.13813 -4.36655
113 1 7.0184 6.14794 15.5438 0.815304 -3.13813 -4.36655
114 1 9.0414 8.17094 15.5438 0.815303 -3.13812 -4.36655
115 1 7.0184 8.17093 1.38277 0.815301 -3.13813 -4.36656
116 1 9.0414 6.14793 1.38277 0.815297 -3.13813 -4.36656
117 1 11.0644 6.14794 15.5438 0.815301 -3.13813 -4.36656
118 1 13.0874 8.17094 15.5438 0.815301 -3.13814 -4.36656
119 1 11.0644 8.17094 1.38277 0.815299 -3.13813 -4.36656
120 1 13.0874 6.14794 1.38277 0.8153 -3.13813 -4.36655
121 1 15.1104 6.14793 15.5438 0.815288 -3.13813 -4.36655
122 1 0.949404 8.17094 15.5438 0.815298 -3.13813 -4.36655
123 1 15.1104 8.17094 1.38277 0.815298 -3.13813 -4.36655
124 1 0.949404 6.14794 1.38277 0.815292 -3.13813 -4.36656
125 1 2.9724 6.14794 15.5438 0.815302 -3.13813 -4.36656
126 1 4.9954 8.17094 15.5438 0.815305 -3.13813 -4.36656
127 1 2.9724 8.17093 1.38277 0.815302 -3.13813 -4.36655
128 1 4.9954 6.14793 1.38277 0.8153 -3.13813 -4.36656
129 1 7.0184 10.1939 3.40577 0.815301 -3.13813 -4.36655
130 1 9.0414 12.2169 3.40577 0.8153 -3.13813 -4.36656
131 1 7.0184 12.2169 5.42877 0.815301 -3.13812 -4.36655
132 1 9.0414 10.1939 5.42877 0.815295 -3.13813 -4.36656
133 1 11.0644 10.1939 3.40577 0.8153 -3.13813 -4.36656
134 1 13.0874 12.2169 3.40577 0.815293 -3.13813 -4.36656
135 1 11.0644 12.2169 5.42877 0.815294 -3.13813 -4.36656
136 1 13.0874 10.1939 5.42877 0.815304 -3.13813 -4.36655
137 1 15.1104 10.1939 3.40577 0.8153 -3.13813 -4.36656
138 1 0.949404 12.2169 3.40577 0.815296 -3.13813 -4.36655
139 1 15.1104 12.2169 5.42877 0.815298 -3.13813 -4.36655
140 1 0.949404 10.1939 5.42877 0.815297 -3.13813 -4.36656
141 1 2.9724 10.1939 3.40577 0.815301 -3.13813 -4.36655
142 1 4.9954 12.2169 3.40577 0.815293 -3.13813 -4.36656
143 1 2.9724 12.2169 5.42877 0.815299 -3.13813 -4.36655
144 1 4.9954 10.1939 5.42877 0.815295 -3.13813 -4.36656
145 1 7.0184 14.2399 3.40577 0.815296 -3.13813 -4.36655
146 1 9.0414 0.078935 3.40577 0.815295 -3.13813 -4.36656
147 1 7.0184 0.078935 5.42877 0.815296 -3.13814 -4.36655
148 1 9.0414 14.2399 5.42877 0.815294 -3.13813 -4.36656
149 1 11.0644 14.2399 3.40577 0.815306 -3.13813 -4.36655
150 1 13.0874 0.0789351 3.40577 0.815303 -3.13812 -4.36655
151 1 11.0644 0.0789351 5.42877 0.815297 -3.13813 -4.36656
152 1 13.0874 14.2399 5.42877 0.815298 -3.13813 -4.36656
153 1 15.1104 14.2399 3.40577 0.815301 -3.13813 -4.36655
154 1 0.949404 0.078935 3.40577 0.815296 -3.13812 -4.36655
155 1 15.1104 0.078935 5.42877 0.815301 -3.13812 -4.36656
156 1 0.949404 14.2399 5.42877 0.815298 -3.13813 -4.36656
157 1 2.9724 14.2399 3.40577 0.815297 -3.13813 -4.36656
158 1 4.9954 0.0789349 3.40577 0.815297 -3.13813 -4.36655
159 1 2.9724 0.0789349 5.42877 0.815305 -3.13813 -4.36656
160 1 4.9954 14.2399 5.42877 0.815293 -3.13813 -4.36655
161 1 7.0184 2.10194 3.40577 0.815297 -3.13813 -4.36655
162 1 9.0414 4.12493 3.40577 0.815296 -3.13813 -4.36656
163 1 7.0184 4.12494 5.42877 0.815298 -3.13812 -4.36656
164 1 9.0414 2.10194 5.42877 0.815296 -3.13813 -4.36656
165 1 11.0644 2.10193 3.40577 0.815296 -3.13813 -4.36656
166 1 13.0874 4.12494 3.40577 0.815292 -3.13813 -4.36656
167 1 11.0644 4.12494 5.42877 0.815299 -3.13813 -4.36656
168 1 13.0874 2.10193 5.42877 0.815296 -3.13813 -4.36656
169 1 15.1104 2.10194 3.40577 0.815297 -3.13813 -4.36655
170 1 0.949404 4.12494 3.40577 0.815297 -3.13812 -4.36656
171 1 15.1104 4.12494 5.42877 0.815296 -3.13812 -4.36656
172 1 0.949404 2.10193 5.42877 0.815298 -3.13813 -4.36656
173 1 2.9724 2.10194 3.40577 0.815295 -3.13813 -4.36655
174 1 4.9954 4.12494 3.40577 0.815296 -3.13813 -4.36656
175 1 2.9724 4.12494 5.42877 0.815292 -3.13813 -4.36655
176 1 4.9954 2.10194 5.42877 0.815291 -3.13813 -4.36655
177 1 7.0184 6.14794 3.40577 0.815302 -3.13813 -4.36656
178 1 9.0414 8.17094 3.40577 0.815297 -3.13813 -4.36656
179 1 7.0184 8.17094 5.42877 0.815299 -3.13813 -4.36655
180 1 9.0414 6.14794 5.42877 0.815301 -3.13813 -4.36656
181 1 11.0644 6.14793 3.40577 0.815294 -3.13813 -4.36656
182 1 13.0874 8.17093 3.40577 0.815302 -3.13813 -4.36655
183 1 11.0644 8.17093 5.42877 0.815301 -3.13813 -4.36656
184 1 13.0874 6.14793 5.42877 0.815298 -3.13813 -4.36655
185 1 15.1104 6.14794 3.40577 0.815297 -3.13813 -4.36655
186 1 0.949404 8.17094 3.40577 0.8153 -3.13813 -4.36656
187 1 15.1104 8.17094 5.42877 0.815297 -3.13813 -4.36656
188 1 0.949404 6.14793 5.42877 0.815297 -3.13813 -4.36655
189 1 2.9724 6.14793 3.40577 0.815297 -3.13812 -4.36656
190 1 4.9954 8.17094 3.40577 0.815296 -3.13813 -4.36656
191 1 2.9724 8.17093 5.42877 0.815294 -3.13813 -4.36655
192 1 4.9954 6.14794 5.42877 0.815303 -3.13813 -4.36656
193 1 7.0184 10.1939 7.45177 0.815297 -3.13813 -4.36656
194 1 9.0414 12.2169 7.45177 0.815295 -3.13813 -4.36656
195 1 7.0184 12.2169 9.47477 0.815294 -3.13813 -4.36655
196 1 9.0414 10.1939 9.47477 0.815293 -3.13813 -4.36656
197 1 11.0644 10.1939 7.45177 0.815297 -3.13813 -4.36655
198 1 13.0874 12.2169 7.45177 0.815302 -3.13813 -4.36655
199 1 11.0644 12.2169 9.47477 0.815297 -3.13813 -4.36656
200 1 13.0874 10.1939 9.47477 0.8153 -3.13812 -4.36655
201 1 15.1104 10.1939 7.45177 0.815299 -3.13813 -4.36656
202 1 0.949404 12.2169 7.45177 0.815298 -3.13813 -4.36656
203 1 15.1104 12.2169 9.47476 0.815298 -3.13813 -4.36656
204 1 0.949404 10.1939 9.47477 0.815303 -3.13813 -4.36656
205 1 2.9724 10.1939 7.45177 0.815304 -3.13813 -4.36656
206 1 4.9954 12.2169 7.45177 0.815292 -3.13813 -4.36655
207 1 2.9724 12.2169 9.47477 0.815294 -3.13813 -4.36656
208 1 4.9954 10.1939 9.47477 0.815301 -3.13813 -4.36656
209 1 7.0184 14.2399 7.45177 0.8153 -3.13813 -4.36655
210 1 9.0414 0.0789352 7.45177 0.815299 -3.13814 -4.36655
211 1 7.0184 0.0789351 9.47477 0.815301 -3.13813 -4.36655
212 1 9.0414 14.2399 9.47477 0.815298 -3.13813 -4.36656
213 1 11.0644 14.2399 7.45177 0.8153 -3.13813 -4.36655
214 1 13.0874 0.0789349 7.45177 0.815301 -3.13813 -4.36655
215 1 11.0644 0.078935 9.47477 0.815303 -3.13813 -4.36656
216 1 13.0874 14.2399 9.47477 0.815295 -3.13813 -4.36655
217 1 15.1104 14.2399 7.45177 0.81529 -3.13813 -4.36656
218 1 0.949404 0.0789352 7.45177 0.815303 -3.13813 -4.36656
219 1 15.1104 0.0789351 9.47477 0.815303 -3.13813 -4.36656
220 1 0.949404 14.2399 9.47477 0.815299 -3.13813 -4.36655
221 1 2.9724 14.2399 7.45177 0.815302 -3.13813 -4.36655
222 1 4.9954 0.0789349 7.45177 0.815296 -3.13813 -4.36655
223 1 2.9724 0.078935 9.47477 0.815298 -3.13813 -4.36656
224 1 4.9954 14.2399 9.47477 0.815297 -3.13813 -4.36655
225 1 7.0184 2.10194 7.45177 0.815295 -3.13813 -4.36656
226 1 9.0414 4.12494 7.45177 0.815302 -3.13813 -4.36655
227 1 7.0184 4.12493 9.47477 0.815294 -3.13813 -4.36655
228 1 9.0414 2.10194 9.47477 0.815298 -3.13813 -4.36656
229 1 11.0644 2.10194 7.45177 0.815299 -3.13814 -4.36656
230 1 13.0874 4.12493 7.45177 0.815299 -3.13812 -4.36656
231 1 11.0644 4.12494 9.47477 0.815291 -3.13812 -4.36656
232 1 13.0874 2.10194 9.47477 0.815305 -3.13813 -4.36655
233 1 15.1104 2.10193 7.45177 0.815297 -3.13813 -4.36656
234 1 0.949404 4.12493 7.45177 0.815295 -3.13813 -4.36656
235 1 15.1104 4.12494 9.47477 0.815299 -3.13813 -4.36655
236 1 0.949404 2.10194 9.47477 0.815301 -3.13813 -4.36655
237 1 2.9724 2.10193 7.45177 0.815294 -3.13813 -4.36655
238 1 4.9954 4.12493 7.45177 0.815302 -3.13813 -4.36655
239 1 2.9724 4.12494 9.47477 0.8153 -3.13813 -4.36656
240 1 4.9954 2.10194 9.47477 0.815299 -3.13813 -4.36655
241 1 7.0184 6.14794 7.45177 0.815296 -3.13813 -4.36656
242 1 9.0414 8.17093 7.45177 0.8153 -3.13813 -4.36656
243 1 7.0184 8.17093 9.47477 0.815295 -3.13813 -4.36655
244 1 9.0414 6.14793 9.47477 0.815298 -3.13813 -4.36656
245 1 11.0644 6.14794 7.45176 0.815302 -3.13813 -4.36655
246 1 13.0874 8.17094 7.45177 0.815294 -3.13812 -4.36655
247 1 11.0644 8.17094 9.47477 0.815296 -3.13813 -4.36656
248 1 13.0874 6.14794 9.47477 0.815301 -3.13813 -4.36655
249 1 15.1104 6.14793 7.45177 0.815299 -3.13813 -4.36656
250 1 0.949404 8.17093 7.45177 0.815302 -3.13813 -4.36655
251 1 15.1104 8.17094 9.47477 0.815295 -3.13813 -4.36656
252 1 0.949404 6.14794 9.47477 0.815302 -3.13813 -4.36655
253 1 2.9724 6.14794 7.45177 0.815298 -3.13813 -4.36655
254 1 4.9954 8.17094 7.45177 0.815301 -3.13813 -4.36655
255 1 2.9724 8.17093 9.47477 0.815295 -3.13813 -4.36656
256 1 4.9954 6.14793 9.47477 0.815299 -3.13813 -4.36655
