ITEM: TIMESTEP
94000000
ITEM: NUMBER OF ATOMS
256
ITEM: BOX BOUNDS pp pp pp
0.0000000000000000e+00 1.6184000000000001e+01
0.0000000000000000e+00 1.6184000000000001e+01
0.0000000000000000e+00 1.6184000000000001e+01
ITEM: ATOMS id type x y z vx vy vz
1 1 3.75405 1.19107 12.0802 0.774808 -2.98227 -4.14968
2 1 5.77705 3.21407 12.0802 0.774805 -2.98226 -4.14968
3 1 3.75405 3.21407 14.1032 0.774809 -2.98227 -4.14967
4 1 5.77705 1.19107 14.1032 0.7748 -2.98226 -4.14968
5 1 7.80005 1.19107 12.0802 0.774801 -2.98226 -4.14968
6 1 9.82305 3.21407 12.0802 0.774806 -2.98226 -4.14968
7 1 7.80005 3.21407 14.1032 0.774804 -2.98227 -4.14968
8 1 9.82305 1.19107 14.1032 0.774801 -2.98226 -4.14968
9 1 11.846 1.19107 12.0802 0.774808 -2.98227 -4.14968
10 1 13.869 3.21407 12.0802 0.774799 -2.98226 -4.14967
11 1 11.846 3.21407 14.1032 0.774794 -2.98226 -4.14968
12 1 13.869 1.19107 14.1032 0.774805 -2.98225 -4.14968
13 1 15.892 1.19107 12.0802 0.7748 -2.98227 -4.14968
14 1 1.73105 3.21407 12.0802 0.774803 -2.98227 -4.14968
15 1 15.892 3.21407 14.1032 0.774805 -2.98227 -4.14968
16 1 1.73105 1.19107 14.1032 0.774798 -2.98226 -4.14968
17 1 3.75405 5.23707 12.0802 0.774804 -2.98227 -4.14968
18 1 5.77705 7.26007 12.0802 0.774808 -2.98226 -4.14967
19 1 3.75405 7.26007 14.1032 0.774801 -2.98226 -4.14968
20 1 5.77705 5.23707 14.1032 0.774803 -2.98226 -4.14968
21 1 7.80005 5.23707 12.0802 0.774798 -2.98226 -4.14967
22 1 9.82305 7.26007 12.0802 0.774803 -2.98227 -4.14968
23 1 7.80005 7.26007 14.1032 0.774803 -2.98226 -4.14967
24 1 9.82305 5.23707 14.1032 0.774801 -2.98226 -4.14968
25 1 11.846 5.23707 12.0802 0.774803 -2.98226 -4.14968
26 1 13.869 7.26007 12.0802 0.774811 -2.98226 -4.14967
27 1 11.846 7.26007 14.1032 0.774806 -2.98227 -4.14967
28 1 13.869 5.23707 14.1032 0.774811 -2.98226 -4.14968
29 1 15.892 5.23707 12.0802 0.774802 -2.98227 -4.14967
30 1 1.73105 7.26007 12.0802 0.774801 -2.98226 -4.14967
31 1 15.892 7.26007 14.1032 0.774807 -2.98227 -4.14967
32 1 1.73105 5.23707 14.1032 0.774811 -2.98227 -4.14967
33 1 3.75405 9.28307 12.0802 0.774805 -2.98227 -4.14967
34 1 5.77705 11.3061 12.0802 0.774803 -2.98226 -4.14967
35 1 3.75405 11.3061 14.1032 0.774805 -2.98227 -4.14966
36 1 5.77705 9.28307 14.1032 0.774803 -2.98226 -4.14968
37 1 7.80005 9.28307 12.0802 0.774805 -2.98226 -4.14967
38 1 9.82305 11.3061 12.0802 0.774807 -2.98226 -4.14967
39 1 7.80005 11.3061 14.1032 0.774807 -2.98226 -4.14968
40 1 9.82305 9.28307 14.1032 0.774805 -2.98226 -4.14968
41 1 11.846 9.28307 12.0802 0.77481 -2.98226 -4.14967
42 1 13.869 11.3061 12.0802 0.774811 -2.98226 -4.14968
43 1 11.846 11.3061 14.1032 0.77481 -2.98227 -4.14968
44 1 13.869 9.28307 14.1032 0.774807 -2.98226 -4.14967
45 1 15.892 9.28307 12.0802 0.774808 -2.98227 -4.14967
46 1 1.73105 11.3061 12.0802 0.774803 -2.98226 -4.14967
47 1 15.892 11.3061 14.1032 0.774803 -2.98227 -4.14968
48 1 1.73105 9.28307 14.1032 0.774804 -2.98227 -4.14967
49 1 3.75405 13.3291 12.0802 0.774809 -2.98226 -4.14967
50 1 5.77705 15.3521 12.0802 0.774808 -2.98226 -4.14967
51 1 3.75405 15.3521 14.1032 0.774805 -2.98226 -4.14968
52 1 5.77705 13.3291 14.1032 0.774808 -2.98226 -4.14968
53 1 7.80005 13.3291 12.0802 0.774804 -2.98226 -4.14968
54 1 9.82305 15.3521 12.0802 0.774809 -2.98226 -4.14969
55 1 7.80005 15.3521 14.1032 0.774809 -2.98227 -4.14968
56 1 9.82305 13.3291 14.1032 0.774807 -2.98226 -4.14968
57 1 11.846 13.3291 12.0802 0.774807 -2.98226 -4.14968
58 1 13.869 15.3521 12.0802 0.774808 -2.98226 -4.14968
59 1 11.846 15.3521 14.1032 0.77481 -2.98226 -4.14968
60 1 13.869 13.3291 14.1032 0.774802 -2.98226 -4.14968
61 1 15.892 13.3291 12.0802 0.77481 -2.98227 -4.14967
62 1 1.73105 15.3521 12.0802 0.774804 -2.98226 -4.14968
63 1 15.892 15.3521 14.1032 0.774802 -2.98226 -4.14967
64 1 1.73105 13.3291 14.1032 0.774802 -2.98227 -4.14967
65 1 3.75405 1.19107 -0.0577723 0.774802 -2.98227 -4.14968
66 1 5.77705 3.21407 -0.0577722 0.774803 -2.98226 -4.14969
67 1 3.75405 3.21407 1.96523 0.774802 -2.98227 -4.14967
68 1 5.77705 1.19107 1.96523 0.774798 -2.98226 -4.14967
69 1 7.80005 1.19107 -0.0577723 0.774802 -2.98226 -4.14968
70 1 9.82305 3.21407 -0.0577722 0.774802 -2.98226 -4.14968
71 1 7.80005 3.21407 1.96523 0.774801 -2.98226 -4.14968
72 1 9.82305 1.19107 1.96523 0.774804 -2.98226 -4.14968
73 1 11.846 1.19107 -0.0577723 0.774796 -2.98226 -4.14967
74 1 13.869 3.21407 -0.0577723 0.774807 -2.98226 -4.14967
75 1 11.846 3.21407 1.96523 0.774806 -2.98226 -4.14968
76 1 13.869 1.19107 1.96523 0.774794 -2.98226 -4.14968
77 1 15.892 1.19107 -0.0577724 0.774804 -2.98226 -4.14968
78 1 1.73105 3.21407 -0.0577723 0.774806 -2.98227 -4.14968
79 1 15.892 3.21407 1.96523 0.774793 -2.98227 -4.14968
80 1 1.73105 1.19107 1.96523 0.774805 -2.98227 -4.14968
81 1 3.75405 5.23707 -0.0577723 0.774803 -2.98227 -4.14967
82 1 5.77705 7.26007 -0.0577722 0.774806 -2.98226 -4.14967
83 1 3.75405 7.26007 1.96523 0.774799 -2.98226 -4.14968
84 1 5.77705 5.23707 1.96523 0.774801 -2.98226 -4.14967
85 1 7.80005 5.23707 -0.0577723 0.774803 -2.98226 -4.14968
86 1 9.82305 7.26007 -0.0577721 0.774808 -2.98226 -4.14968
87 1 7.80005 7.26007 1.96523 0.774801 -2.98226 -4.14967
88 1 9.82305 5.23707 1.96523 0.774802 -2.98226 -4.14968
89 1 11.846 5.23707 -0.0577724 0.774807 -2.98226 -4.14968
90 1 13.869 7.26007 -0.0577725 0.774807 -2.98226 -4.14967
91 1 11.846 7.26007 1.96523 0.774806 -2.98226 -4.14967
92 1 13.869 5.23707 1.96523 0.774804 -2.98226 -4.14967
93 1 15.892 5.23707 -0.0577723 0.774801 -2.98227 -4.14967
94 1 1.73105 7.26007 -0.0577722 0.774797 -2.98226 -4.14967
95 1 15.892 7.26007 1.96523 0.774801 -2.98227 -4.14967
96 1 1.73105 5.23707 1.96523 0.774798 -2.98226 -4.14967
97 1 3.75405 9.28307 -0.0577724 0.774802 -2.98227 -4.14968
98 1 5.77705 11.3061 -0.0577724 0.774805 -2.98226 -4.14967
99 1 3.75405 11.3061 1.96523 0.774812 -2.98227 -4.14967
100 1 5.77705 9.28307 1.96523 0.774805 -2.98226 -4.14967
101 1 7.80005 9.28307 -0.0577725 0.774807 -2.98227 -4.14967
102 1 9.82305 11.3061 -0.0577723 0.774807 -2.98226 -4.14968
103 1 7.80005 11.3061 1.96523 0.774804 -2.98226 -4.14968
104 1 9.82305 9.28307 1.96523 0.774806 -2.98226 -4.14967
105 1 11.846 9.28307 -0.0577722 0.774802 -2.98227 -4.14968
106 1 13.869 11.3061 -0.0577723 0.774809 -2.98226 -4.14968
107 1 11.846 11.3061 1.96523 0.774799 -2.98227 -4.14967
108 1 13.869 9.28307 1.96523 0.774802 -2.98227 -4.14967
109 1 15.892 9.28307 -0.0577723 0.774809 -2.98227 -4.14967
110 1 1.73105 11.3061 -0.0577722 0.774804 -2.98227 -4.14967
111 1 15.892 11.3061 1.96523 0.774802 -2.98227 -4.14967
112 1 1.73105 9.28307 1.96523 0.774803 -2.98227 -4.14967
113 1 3.75405 13.3291 -0.0577722 0.774809 -2.98227 -4.14968
114 1 5.77705 15.3521 -0.0577722 0.774808 -2.98227 -4.14968
115 1 3.75405 15.3521 1.96523 0.774809 -2.98226 -4.14968
116 1 5.77705 13.3291 1.96523 0.774808 -2.98226 -4.14968
117 1 7.80005 13.3291 -0.0577725 0.774809 -2.98227 -4.14968
118 1 9.82305 15.3521 -0.0577724 0.774805 -2.98226 -4.14969
119 1 7.80005 15.3521 1.96523 0.774805 -2.98227 -4.14968
120 1 9.82305 13.3291 1.96523 0.774803 -2.98226 -4.14968
121 1 11.846 13.3291 -0.0577724 0.774808 -2.98226 -4.14968
122 1 13.869 15.3521 -0.0577722 0.774807 -2.98227 -4.14968
123 1 11.846 15.3521 1.96523 0.774803 -2.98227 -4.14968
124 1 13.869 13.3291 1.96523 0.774795 -2.98227 -4.14967
125 1 15.892 13.3291 -0.0577723 0.774807 -2.98226 -4.14967
126 1 1.73105 15.3521 -0.0577722 0.774806 -2.98226 -4.14968
127 1 15.892 15.3521 1.96523 0.7748 -2.98227 -4.14967
128 1 1.73105 13.3291 1.96523 0.774806 -2.98227 -4.14968
129 1 3.75405 1.19107 3.98823 0.774801 -2.98226 -4.14968
130 1 5.77705 3.21407 3.98823 0.774799 -2.98226 -4.14968
131 1 3.75405 3.21407 6.01123 0.774797 -2.98227 -4.14968
132 1 5.77705 1.19107 6.01123 0.7748 -2.98226 -4.14968
133 1 7.80005 1.19107 3.98823 0.774803 -2.98226 -4.14967
134 1 9.82305 3.21407 3.98823 0.774798 -2.98226 -4.14968
135 1 7.80005 3.21407 6.01123 0.774801 -2.98226 -4.14968
136 1 9.82305 1.19107 6.01123 0.7748 -2.98226 -4.14968
137 1 11.846 1.19107 3.98823 0.774801 -2.98227 -4.14967
138 1 13.869 3.21407 3.98823 0.774794 -2.98226 -4.14968
139 1 11.846 3.21407 6.01123 0.774802 -2.98226 -4.14968
140 1 13.869 1.19107 6.01123 0.7748 -2.98226 -4.14967
141 1 15.892 1.19107 3.98823 0.774802 -2.98227 -4.14967
142 1 1.73105 3.21407 3.98823 0.774798 -2.98227 -4.14967
143 1 15.892 3.21407 6.01123 0.7748 -2.98226 -4.14968
144 1 1.73105 1.19107 6.01123 0.774803 -2.98226 -4.14968
145 1 3.75405 5.23707 3.98823 0.774792 -2.98226 -4.14967
146 1 5.77705 7.26007 3.98823 0.774802 -2.98227 -4.14968
147 1 3.75405 7.26007 6.01123 0.774801 -2.98226 -4.14968
148 1 5.77705 5.23707 6.01123 0.774798 -2.98226 -4.14968
149 1 7.80005 5.23707 3.98823 0.774802 -2.98227 -4.14967
150 1 9.82305 7.26007 3.98823 0.774803 -2.98226 -4.14967
151 1 7.80005 7.26007 6.01123 0.7748 -2.98226 -4.14967
152 1 9.82305 5.23707 6.01123 0.774795 -2.98226 -4.14967
153 1 11.846 5.23707 3.98823 0.774802 -2.98226 -4.14967
154 1 13.869 7.26007 3.98823 0.774801 -2.98226 -4.14967
155 1 11.846 7.26007 6.01123 0.774807 -2.98226 -4.14967
156 1 13.869 5.23707 6.01123 0.774802 -2.98227 -4.14967
157 1 15.892 5.23707 3.98823 0.7748 -2.98227 -4.14967
158 1 1.73105 7.26007 3.98823 0.774799 -2.98227 -4.14967
159 1 15.892 7.26007 6.01123 0.774809 -2.98226 -4.14967
160 1 1.73105 5.23707 6.01123 0.7748 -2.98227 -4.14967
161 1 3.75405 9.28307 3.98823 0.774801 -2.98227 -4.14968
162 1 5.77705 11.3061 3.98823 0.774803 -2.98227 -4.14967
163 1 3.75405 11.3061 6.01123 0.77481 -2.98227 -4.14968
164 1 5.77705 9.28307 6.01123 0.774805 -2.98227 -4.14968
165 1 7.80005 9.28307 3.98823 0.774808 -2.98226 -4.14967
166 1 9.82305 11.3061 3.98823 0.774802 -2.98226 -4.14967
167 1 7.80005 11.3061 6.01123 0.774804 -2.98226 -4.14967
168 1 9.82305 9.28307 6.01123 0.774803 -2.98226 -4.14967
169 1 11.846 9.28307 3.98823 0.774801 -2.98226 -4.14967
170 1 13.869 11.3061 3.98823 0.7748 -2.98227 -4.14967
171 1 11.846 11.3061 6.01123 0.774798 -2.98226 -4.14968
172 1 13.869 9.28307 6.01123 0.774806 -2.98226 -4.14967
173 1 15.892 9.28307 3.98823 0.774801 -2.98227 -4.14967
174 1 1.73105 11.3061 3.98823 0.774804 -2.98227 -4.14967
175 1 15.892 11.3061 6.01123 0.774804 -2.98226 -4.14967
176 1 1.73105 9.28307 6.01123 0.774808 -2.98227 -4.14967
177 1 3.75405 13.3291 3.98823 0.774807 -2.98226 -4.14968
178 1 5.77705 15.3521 3.98823 0.774802 -2.98226 -4.14968
179 1 3.75405 15.3521 6.01123 0.774806 -2.98227 -4.14968
180 1 5.77705 13.3291 6.01123 0.774808 -2.98227 -4.14968
181 1 7.80005 13.3291 3.98823 0.774803 -2.98227 -4.14968
182 1 9.82305 15.3521 3.98823 0.774799 -2.98226 -4.14968
183 1 7.80005 15.3521 6.01123 0.774797 -2.98226 -4.14968
184 1 9.82305 13.3291 6.01123 0.774803 -2.98226 -4.14967
185 1 11.846 13.3291 3.98823 0.774799 -2.98227 -4.14968
186 1 13.869 15.3521 3.98823 0.774798 -2.98227 -4.14967
187 1 11.846 15.3521 6.01123 0.774798 -2.98226 -4.14969
188 1 13.869 13.3291 6.01123 0.774799 -2.98227 -4.14968
189 1 15.892 13.3291 3.98823 0.774801 -2.98227 -4.14968
190 1 1.73105 15.3521 3.98823 0.774809 -2.98227 -4.14967
191 1 15.892 15.3521 6.01123 0.774804 -2.98226 -4.14967
192 1 1.73105 13.3291 6.01123 0.774802 -2.98227 -4.14968
193 1 3.75405 1.19107 8.03423 0.774805 -2.98226 -4.14968
194 1 5.77705 3.21407 8.03423 0.774799 -2.98226 -4.14968
195 1 3.75405 3.21407 10.0572 0.774805 -2.98226 -4.14967
196 1 5.77705 1.19107 10.0572 0.77481 -2.98227 -4.14968
197 1 7.80005 1.19107 8.03423 0.774801 -2.98227 -4.14968
198 1 9.82305 3.21407 8.03423 0.774798 -2.98226 -4.14968
199 1 7.80005 3.21407 10.0572 0.774804 -2.98226 -4.14968
200 1 9.82305 1.19107 10.0572 0.774802 -2.98226 -4.14968
201 1 11.846 1.19107 8.03423 0.774805 -2.98226 -4.14968
202 1 13.869 3.21407 8.03423 0.774802 -2.98226 -4.14968
203 1 11.846 3.21407 10.0572 0.7748 -2.98226 -4.14968
204 1 13.869 1.19107 10.0572 0.774798 -2.98227 -4.14968
205 1 15.892 1.19107 8.03423 0.774799 -2.98227 -4.14968
206 1 1.73105 3.21407 8.03423 0.774801 -2.98227 -4.14968
207 1 15.892 3.21407 10.0572 0.774806 -2.98227 -4.14968
208 1 1.73105 1.19107 10.0572 0.774802 -2.98227 -4.14968
209 1 3.75405 5.23707 8.03423 0.774795 -2.98226 -4.14967
210 1 5.77705 7.26007 8.03423 0.7748 -2.98227 -4.14967
211 1 3.75405 7.26007 10.0572 0.774803 -2.98227 -4.14967
212 1 5.77705 5.23707 10.0572 0.774807 -2.98226 -4.14968
213 1 7.80005 5.23707 8.03423 0.774801 -2.98226 -4.14969
214 1 9.82305 7.26007 8.03423 0.774802 -2.98226 -4.14967
215 1 7.80005 7.26007 10.0572 0.774808 -2.98226 -4.14968
216 1 9.82305 5.23707 10.0572 0.774806 -2.98226 -4.14968
217 1 11.846 5.23707 8.03423 0.774809 -2.98226 -4.14967
218 1 13.869 7.26007 8.03423 0.774802 -2.98226 -4.14967
219 1 11.846 7.26007 10.0572 0.774803 -2.98226 -4.14967
220 1 13.869 5.23707 10.0572 0.774801 -2.98226 -4.14967
221 1 15.892 5.23707 8.03423 0.774804 -2.98226 -4.14968
222 1 1.73105 7.26007 8.03423 0.774805 -2.98227 -4.14967
223 1 15.892 7.26007 10.0572 0.774808 -2.98226 -4.14967
224 1 1.73105 5.23707 10.0572 0.774807 -2.98227 -4.14967
225 1 3.75405 9.28307 8.03423 0.774801 -2.98227 -4.14967
226 1 5.77705 11.3061 8.03423 0.774807 -2.98226 -4.14967
227 1 3.75405 11.3061 10.0572 0.774808 -2.98226 -4.14968
228 1 5.77705 9.28307 10.0572 0.774807 -2.98227 -4.14967
229 1 7.80005 9.28307 8.03423 0.774805 -2.98226 -4.14968
230 1 9.82305 11.3061 8.03423 0.774798 -2.98226 -4.14968
231 1 7.80005 11.3061 10.0572 0.774807 -2.98226 -4.14967
232 1 9.82305 9.28307 10.0572 0.774802 -2.98226 -4.14968
233 1 11.846 9.28307 8.03423 0.774798 -2.98226 -4.14967
234 1 13.869 11.3061 8.03423 0.774805 -2.98226 -4.14967
235 1 11.846 11.3061 10.0572 0.774807 -2.98226 -4.14968
236 1 13.869 9.28307 10.0572 0.774811 -2.98227 -4.14968
237 1 15.892 9.28307 8.03423 0.774811 -2.98226 -4.14967
238 1 1.73105 11.3061 8.03423 0.774803 -2.98227 -4.14967
239 1 15.892 11.3061 10.0572 0.774812 -2.98227 -4.14967
240 1 1.73105 9.28307 10.0572 0.774807 -2.98227 -4.14967
241 1 3.75405 13.3291 8.03423 0.774809 -2.98227 -4.14967
242 1 5.77705 15.3521 8.03423 0.774806 -2.98226 -4.14968
243 1 3.75405 15.3521 10.0572 0.774797 -2.98226 -4.14967
244 1 5.77705 13.3291 10.0572 0.774805 -2.98227 -4.14967
245 1 7.80005 13.3291 8.03423 0.7748 -2.98226 -4.14968
246 1 9.82305 15.3521 8.03423 0.774799 -2.98226 -4.14968
247 1 7.80005 15.3521 10.0572 0.774806 -2.98226 -4.14968
248 1 9.82305 13.3291 10.0572 0.77481 -2.98227 -4.14968
249 1 11.846 13.3291 8.03423 0.774803 -2.98226 -4.14968
250 1 13.869 15.3521 8.03423 0.774805 -2.98226 -4.14968
251 1 11.846 15.3521 10.0572 0.774805 -2.98227 -4.14968
252 1 13.869 13.3291 10.0572 0.774804 -2.98227 -4.14968
253 1 15.892 13.3291 8.03423 0.774803 -2.98226 -4.14968
254 1 1.73105 15.3521 8.03423 0.7748 -2.98227 -4.14968
255 1 15.892 15.3521 10.0572 0.774806 -2.98227 -4.14968
256 1 1.73105 13.3291 10.0572 0.774812 -2.98226 -4.14967
