ITEM: TIMESTEP
28000000
ITEM: NUMBER OF ATOMS
256
ITEM: BOX BOUNDS pp pp pp
0.0000000000000000e+00 1.6184000000000001e+01
0.0000000000000000e+00 1.6184000000000001e+01
0.0000000000000000e+00 1.6184000000000001e+01
ITEM: ATOMS id type x y z vx vy vz
1 1 13.5997 15.0675 5.83735 0.761424 -2.93078 -4.07804
2 1 15.6227 0.906463 5.83735 0.761431 -2.93078 -4.07804
3 1 13.5997 0.906463 7.86035 0.761426 -2.93077 -4.07803
4 1 15.6227 15.0675 7.86035 0.761426 -2.93078 -4.07804
5 1 1.46166 15.0675 5.83735 0.761429 -2.93079 -4.07803
6 1 3.48466 0.906463 5.83735 0.761424 -2.93078 -4.07804
7 1 1.46166 0.906463 7.86035 0.761424 -2.93078 -4.07803
8 1 3.48466 15.0675 7.86035 0.761423 -2.93078 -4.07803
9 1 5.50766 15.0675 5.83735 0.761431 -2.93077 -4.07803
10 1 7.53066 0.906463 5.83735 0.761422 -2.93078 -4.07803
11 1 5.50766 0.906463 7.86035 0.761424 -2.93078 -4.07803
12 1 7.53066 15.0675 7.86035 0.761422 -2.93078 -4.07804
13 1 9.55366 15.0675 5.83735 0.761424 -2.93078 -4.07804
14 1 11.5767 0.906463 5.83735 0.761428 -2.93077 -4.07804
15 1 9.55366 0.906463 7.86035 0.761425 -2.93078 -4.07804
16 1 11.5767 15.0675 7.86035 0.761429 -2.93078 -4.07803
17 1 13.5997 2.92946 5.83735 0.761422 -2.93078 -4.07803
18 1 15.6227 4.95246 5.83735 0.761427 -2.93077 -4.07803
19 1 13.5997 4.95246 7.86035 0.761425 -2.93078 -4.07803
20 1 15.6227 2.92946 7.86035 0.761428 -2.93078 -4.07803
21 1 1.46166 2.92946 5.83735 0.761421 -2.93077 -4.07803
22 1 3.48466 4.95246 5.83735 0.761421 -2.93077 -4.07803
23 1 1.46166 4.95246 7.86035 0.761426 -2.93077 -4.07803
24 1 3.48466 2.92946 7.86035 0.76143 -2.93078 -4.07803
25 1 5.50766 2.92946 5.83735 0.761426 -2.93078 -4.07803
26 1 7.53066 4.95246 5.83735 0.76143 -2.93078 -4.07804
27 1 5.50766 4.95246 7.86035 0.761422 -2.93078 -4.07804
28 1 7.53066 2.92946 7.86035 0.761427 -2.93077 -4.07803
29 1 9.55366 2.92946 5.83735 0.761431 -2.93077 -4.07804
30 1 11.5767 4.95246 5.83735 0.761427 -2.93078 -4.07803
31 1 9.55366 4.95246 7.86035 0.76143 -2.93078 -4.07804
32 1 11.5767 2.92946 7.86035 0.761424 -2.93078 -4.07804
33 1 13.5997 6.97546 5.83735 0.761425 -2.93077 -4.07804
34 1 15.6227 8.99846 5.83735 0.761431 -2.93078 -4.07804
35 1 13.5997 8.99846 7.86035 0.761426 -2.93077 -4.07803
36 1 15.6227 6.97546 7.86035 0.761427 -2.93078 -4.07804
37 1 1.46166 6.97546 5.83735 0.761432 -2.93078 -4.07804
38 1 3.48466 8.99846 5.83735 0.761422 -2.93078 -4.07804
39 1 1.46166 8.99846 7.86035 0.761425 -2.93078 -4.07804
40 1 3.48466 6.97546 7.86035 0.761427 -2.93078 -4.07804
41 1 5.50766 6.97546 5.83735 0.76143 -2.93078 -4.07804
42 1 7.53066 8.99846 5.83735 0.761426 -2.93078 -4.07803
43 1 5.50766 8.99846 7.86035 0.761428 -2.93078 -4.07803
44 1 7.53066 6.97546 7.86035 0.761424 -2.93078 -4.07804
45 1 9.55366 6.97546 5.83735 0.761431 -2.93078 -4.07804
46 1 11.5767 8.99846 5.83735 0.761422 -2.93078 -4.07803
47 1 9.55366 8.99846 7.86035 0.761423 -2.93078 -4.07804
48 1 11.5767 6.97546 7.86035 0.761431 -2.93078 -4.07803
49 1 13.5997 11.0215 5.83735 0.761425 -2.93078 -4.07804
50 1 15.6227 13.0445 5.83735 0.761424 -2.93078 -4.07803
51 1 13.5997 13.0445 7.86035 0.761431 -2.93077 -4.07804
52 1 15.6227 11.0215 7.86035 0.761421 -2.93077 -4.07804
53 1 1.46166 11.0215 5.83735 0.761431 -2.93078 -4.07803
54 1 3.48466 13.0445 5.83735 0.76143 -2.93078 -4.07804
55 1 1.46166 13.0445 7.86035 0.76142 -2.93077 -4.07803
56 1 3.48466 11.0215 7.86035 0.761421 -2.93078 -4.07803
57 1 5.50766 11.0215 5.83735 0.761426 -2.93078 -4.07803
58 1 7.53066 13.0445 5.83735 0.761429 -2.93077 -4.07803
59 1 5.50766 13.0445 7.86035 0.761432 -2.93079 -4.07803
60 1 7.53066 11.0215 7.86035 0.761422 -2.93078 -4.07803
61 1 9.55366 11.0215 5.83735 0.761426 -2.93078 -4.07803
62 1 11.5767 13.0445 5.83735 0.761423 -2.93078 -4.07804
63 1 9.55366 13.0445 7.86035 0.76143 -2.93078 -4.07804
64 1 11.5767 11.0215 7.86035 0.761427 -2.93078 -4.07804
65 1 13.5997 15.0675 9.88335 0.761426 -2.93078 -4.07804
66 1 15.6227 0.906463 9.88335 0.761428 -2.93078 -4.07804
67 1 13.5997 0.906463 11.9063 0.761427 -2.93077 -4.07803
68 1 15.6227 15.0675 11.9063 0.761425 -2.93078 -4.07803
69 1 1.46166 15.0675 9.88335 0.761423 -2.93078 -4.07803
70 1 3.48466 0.906463 9.88335 0.761425 -2.93078 -4.07803
71 1 1.46166 0.906463 11.9063 0.761425 -2.93078 -4.07803
72 1 3.48466 15.0675 11.9063 0.76142 -2.93078 -4.07803
73 1 5.50766 15.0675 9.88335 0.761429 -2.93078 -4.07804
74 1 7.53066 0.906463 9.88335 0.761429 -2.93078 -4.07803
75 1 5.50766 0.906463 11.9063 0.761427 -2.93078 -4.07804
76 1 7.53066 15.0675 11.9063 0.76143 -2.93077 -4.07803
77 1 9.55366 15.0675 9.88335 0.76143 -2.93077 -4.07803
78 1 11.5767 0.906463 9.88335 0.761435 -2.93077 -4.07804
79 1 9.55366 0.906463 11.9063 0.76143 -2.93077 -4.07804
80 1 11.5767 15.0675 11.9063 0.761431 -2.93077 -4.07803
81 1 13.5997 2.92946 9.88335 0.761426 -2.93078 -4.07804
82 1 15.6227 4.95246 9.88335 0.761426 -2.93078 -4.07803
83 1 13.5997 4.95246 11.9063 0.76142 -2.93078 -4.07804
84 1 15.6227 2.92946 11.9063 0.761427 -2.93077 -4.07804
85 1 1.46166 2.92946 9.88335 0.761424 -2.93077 -4.07803
86 1 3.48466 4.95246 9.88335 0.761423 -2.93078 -4.07803
87 1 1.46166 4.95246 11.9063 0.761427 -2.93078 -4.07803
88 1 3.48466 2.92946 11.9063 0.761428 -2.93078 -4.07803
89 1 5.50766 2.92946 9.88335 0.761421 -2.93078 -4.07804
90 1 7.53066 4.95246 9.88335 0.761427 -2.93077 -4.07804
91 1 5.50766 4.95246 11.9063 0.761426 -2.93077 -4.07804
92 1 7.53066 2.92946 11.9063 0.761432 -2.93078 -4.07804
93 1 9.55366 2.92946 9.88335 0.761434 -2.93078 -4.07803
94 1 11.5767 4.95246 9.88335 0.761429 -2.93078 -4.07804
95 1 9.55366 4.95246 11.9063 0.76143 -2.93078 -4.07804
96 1 11.5767 2.92946 11.9063 0.761433 -2.93078 -4.07803
97 1 13.5997 6.97546 9.88335 0.761426 -2.93078 -4.07804
98 1 15.6227 8.99846 9.88335 0.761426 -2.93077 -4.07803
99 1 13.5997 8.99846 11.9063 0.761427 -2.93077 -4.07804
100 1 15.6227 6.97546 11.9063 0.761435 -2.93078 -4.07803
101 1 1.46166 6.97546 9.88335 0.761428 -2.93077 -4.07803
102 1 3.48466 8.99846 9.88335 0.761425 -2.93078 -4.07803
103 1 1.46166 8.99846 11.9063 0.761432 -2.93078 -4.07804
104 1 3.48466 6.97546 11.9063 0.761427 -2.93078 -4.07803
105 1 5.50766 6.97546 9.88335 0.761432 -2.93078 -4.07803
106 1 7.53066 8.99846 9.88335 0.761426 -2.93078 -4.07803
107 1 5.50766 8.99846 11.9063 0.761422 -2.93078 -4.07803
108 1 7.53066 6.97546 11.9063 0.761424 -2.93077 -4.07803
109 1 9.55366 6.97546 9.88335 0.761429 -2.93078 -4.07803
110 1 11.5767 8.99846 9.88335 0.76143 -2.93078 -4.07803
111 1 9.55366 8.99846 11.9063 0.761424 -2.93078 -4.07804
112 1 11.5767 6.97546 11.9063 0.761424 -2.93077 -4.07804
113 1 13.5997 11.0215 9.88335 0.761426 -2.93078 -4.07804
114 1 15.6227 13.0445 9.88335 0.761428 -2.93078 -4.07804
115 1 13.5997 13.0445 11.9063 0.761429 -2.93078 -4.07804
116 1 15.6227 11.0215 11.9063 0.761434 -2.93078 -4.07804
117 1 1.46166 11.0215 9.88335 0.76143 -2.93078 -4.07803
118 1 3.48466 13.0445 9.88335 0.761429 -2.93078 -4.07804
119 1 1.46166 13.0445 11.9063 0.761429 -2.93078 -4.07803
120 1 3.48466 11.0215 11.9063 0.761422 -2.93078 -4.07803
121 1 5.50766 11.0215 9.88335 0.761432 -2.93079 -4.07804
122 1 7.53066 13.0445 9.88335 0.761427 -2.93078 -4.07803
123 1 5.50766 13.0445 11.9063 0.761428 -2.93078 -4.07803
124 1 7.53066 11.0215 11.9063 0.761425 -2.93078 -4.07804
125 1 9.55366 11.0215 9.88335 0.761426 -2.93078 -4.07804
126 1 11.5767 13.0445 9.88335 0.761435 -2.93078 -4.07803
127 1 9.55366 13.0445 11.9063 0.761427 -2.93078 -4.07803
128 1 11.5767 11.0215 11.9063 0.761422 -2.93078 -4.07804
129 1 13.5997 15.0675 13.9293 0.761425 -2.93078 -4.07803
130 1 15.6227 0.906463 13.9293 0.761425 -2.93078 -4.07804
131 1 13.5997 0.906463 -0.231653 0.761427 -2.93077 -4.07803
132 1 15.6227 15.0675 -0.231653 0.761427 -2.93078 -4.07803
133 1 1.46166 15.0675 13.9293 0.76143 -2.93078 -4.07803
134 1 3.48466 0.906463 13.9293 0.76143 -2.93078 -4.07803
135 1 1.46166 0.906463 -0.231653 0.761425 -2.93078 -4.07803
136 1 3.48466 15.0675 -0.231653 0.761431 -2.93078 -4.07803
137 1 5.50766 15.0675 13.9293 0.761428 -2.93077 -4.07803
138 1 7.53066 0.906463 13.9293 0.761432 -2.93077 -4.07803
139 1 5.50766 0.906463 -0.231653 0.761428 -2.93078 -4.07804
140 1 7.53066 15.0675 -0.231653 0.76143 -2.93078 -4.07803
141 1 9.55366 15.0675 13.9293 0.761428 -2.93078 -4.07804
142 1 11.5767 0.906463 13.9293 0.761428 -2.93078 -4.07803
143 1 9.55366 0.906463 -0.231653 0.761425 -2.93077 -4.07803
144 1 11.5767 15.0675 -0.231653 0.761432 -2.93077 -4.07803
145 1 13.5997 2.92946 13.9293 0.761428 -2.93077 -4.07804
146 1 15.6227 4.95246 13.9293 0.761429 -2.93078 -4.07803
147 1 13.5997 4.95246 -0.231653 0.761426 -2.93078 -4.07804
148 1 15.6227 2.92946 -0.231653 0.761429 -2.93078 -4.07803
149 1 1.46166 2.92946 13.9293 0.761426 -2.93078 -4.07803
150 1 3.48466 4.95246 13.9293 0.761438 -2.93078 -4.07803
151 1 1.46166 4.95246 -0.231653 0.76143 -2.93078 -4.07803
152 1 3.48466 2.92946 -0.231653 0.76143 -2.93078 -4.07804
153 1 5.50766 2.92946 13.9293 0.761429 -2.93078 -4.07804
154 1 7.53066 4.95246 13.9293 0.761425 -2.93078 -4.07804
155 1 5.50766 4.95246 -0.231653 0.761429 -2.93078 -4.07804
156 1 7.53066 2.92946 -0.231653 0.761429 -2.93077 -4.07803
157 1 9.55366 2.92946 13.9293 0.761429 -2.93078 -4.07803
158 1 11.5767 4.95246 13.9293 0.761425 -2.93078 -4.07803
159 1 9.55366 4.95246 -0.231653 0.761428 -2.93078 -4.07803
160 1 11.5767 2.92946 -0.231653 0.761426 -2.93077 -4.07803
161 1 13.5997 6.97546 13.9293 0.761424 -2.93078 -4.07803
162 1 15.6227 8.99846 13.9293 0.761431 -2.93079 -4.07803
163 1 13.5997 8.99846 -0.231653 0.761425 -2.93078 -4.07804
164 1 15.6227 6.97546 -0.231653 0.761422 -2.93078 -4.07803
165 1 1.46166 6.97546 13.9293 0.761425 -2.93078 -4.07804
166 1 3.48466 8.99846 13.9293 0.761427 -2.93078 -4.07804
167 1 1.46166 8.99846 -0.231653 0.761429 -2.93078 -4.07804
168 1 3.48466 6.97546 -0.231653 0.761427 -2.93077 -4.07803
169 1 5.50766 6.97546 13.9293 0.761424 -2.93078 -4.07804
170 1 7.53066 8.99846 13.9293 0.761426 -2.93078 -4.07803
171 1 5.50766 8.99846 -0.231653 0.761421 -2.93077 -4.07803
172 1 7.53066 6.97546 -0.231653 0.761424 -2.93078 -4.07803
173 1 9.55366 6.97546 13.9293 0.761423 -2.93078 -4.07804
174 1 11.5767 8.99846 13.9293 0.761427 -2.93078 -4.07803
175 1 9.55366 8.99846 -0.231653 0.761426 -2.93078 -4.07804
176 1 11.5767 6.97546 -0.231653 0.761429 -2.93078 -4.07803
177 1 13.5997 11.0215 13.9293 0.761426 -2.93078 -4.07803
178 1 15.6227 13.0445 13.9293 0.761425 -2.93077 -4.07803
179 1 13.5997 13.0445 -0.231653 0.761426 -2.93078 -4.07803
180 1 15.6227 11.0215 -0.231653 0.761429 -2.93077 -4.07803
181 1 1.46166 11.0215 13.9293 0.761426 -2.93078 -4.07804
182 1 3.48466 13.0445 13.9293 0.761431 -2.93077 -4.07803
183 1 1.46166 13.0445 -0.231653 0.761425 -2.93078 -4.07804
184 1 3.48466 11.0215 -0.231653 0.761427 -2.93078 -4.07804
185 1 5.50766 11.0215 13.9293 0.761423 -2.93077 -4.07803
186 1 7.53066 13.0445 13.9293 0.761428 -2.93078 -4.07804
187 1 5.50766 13.0445 -0.231653 0.761426 -2.93078 -4.07803
188 1 7.53066 11.0215 -0.231653 0.761426 -2.93078 -4.07803
189 1 9.55366 11.0215 13.9293 0.761424 -2.93078 -4.07803
190 1 11.5767 13.0445 13.9293 0.761433 -2.93078 -4.07804
191 1 9.55366 13.0445 -0.231653 0.761434 -2.93078 -4.07803
192 1 11.5767 11.0215 -0.231653 0.761436 -2.93077 -4.07804
193 1 13.5997 15.0675 1.79135 0.761429 -2.93077 -4.07803
194 1 15.6227 0.906463 1.79135 0.761428 -2.93078 -4.07803
195 1 13.5997 0.906463 3.81435 0.76143 -2.93077 -4.07804
196 1 15.6227 15.0675 3.81435 0.761429 -2.93078 -4.07803
197 1 1.46166 15.0675 1.79135 0.761425 -2.93078 -4.07804
198 1 3.48466 0.906463 1.79135 0.76143 -2.93077 -4.07804
199 1 1.46166 0.906463 3.81435 0.761431 -2.93078 -4.07803
200 1 3.48466 15.0675 3.81435 0.761427 -2.93078 -4.07804
201 1 5.50766 15.0675 1.79135 0.761428 -2.93078 -4.07803
202 1 7.53066 0.906463 1.79135 0.761423 -2.93078 -4.07804
203 1 5.50766 0.906463 3.81435 0.761426 -2.93077 -4.07803
204 1 7.53066 15.0675 3.81435 0.761426 -2.93078 -4.07803
205 1 9.55366 15.0675 1.79135 0.761423 -2.93077 -4.07803
206 1 11.5767 0.906463 1.79135 0.761425 -2.93078 -4.07803
207 1 9.55366 0.906463 3.81435 0.761424 -2.93078 -4.07803
208 1 11.5767 15.0675 3.81435 0.761427 -2.93077 -4.07803
209 1 13.5997 2.92946 1.79135 0.761426 -2.93078 -4.07804
210 1 15.6227 4.95246 1.79135 0.76143 -2.93077 -4.07804
211 1 13.5997 4.95246 3.81435 0.761435 -2.93078 -4.07804
212 1 15.6227 2.92946 3.81435 0.761426 -2.93077 -4.07803
213 1 1.46166 2.92946 1.79135 0.761434 -2.93079 -4.07804
214 1 3.48466 4.95246 1.79135 0.761426 -2.93078 -4.07804
215 1 1.46166 4.95246 3.81435 0.761432 -2.93078 -4.07803
216 1 3.48466 2.92946 3.81435 0.761428 -2.93078 -4.07803
217 1 5.50766 2.92946 1.79135 0.761429 -2.93078 -4.07804
218 1 7.53066 4.95246 1.79135 0.761428 -2.93077 -4.07803
219 1 5.50766 4.95246 3.81435 0.761436 -2.93078 -4.07804
220 1 7.53066 2.92946 3.81435 0.761424 -2.93077 -4.07803
221 1 9.55366 2.92946 1.79135 0.761426 -2.93078 -4.07803
222 1 11.5767 4.95246 1.79135 0.761423 -2.93078 -4.07803
223 1 9.55366 4.95246 3.81435 0.761422 -2.93078 -4.07803
224 1 11.5767 2.92946 3.81435 0.76143 -2.93078 -4.07803
225 1 13.5997 6.97546 1.79135 0.761429 -2.93078 -4.07804
226 1 15.6227 8.99846 1.79135 0.761422 -2.93077 -4.07804
227 1 13.5997 8.99846 3.81435 0.761427 -2.93078 -4.07803
228 1 15.6227 6.97546 3.81435 0.761427 -2.93078 -4.07804
229 1 1.46166 6.97546 1.79135 0.761421 -2.93078 -4.07804
230 1 3.48466 8.99846 1.79135 0.761426 -2.93078 -4.07803
231 1 1.46166 8.99846 3.81435 0.761427 -2.93078 -4.07803
232 1 3.48466 6.97546 3.81435 0.761422 -2.93078 -4.07804
233 1 5.50766 6.97546 1.79135 0.761425 -2.93078 -4.07804
234 1 7.53066 8.99846 1.79135 0.761428 -2.93078 -4.07803
235 1 5.50766 8.99846 3.81435 0.761429 -2.93078 -4.07803
236 1 7.53066 6.97546 3.81435 0.761426 -2.93078 -4.07804
237 1 9.55366 6.97546 1.79135 0.761423 -2.93078 -4.07804
238 1 11.5767 8.99846 1.79135 0.761432 -2.93078 -4.07803
239 1 9.55366 8.99846 3.81435 0.761426 -2.93078 -4.07804
240 1 11.5767 6.97546 3.81435 0.761427 -2.93078 -4.07804
241 1 13.5997 11.0215 1.79135 0.761431 -2.93078 -4.07803
242 1 15.6227 13.0445 1.79135 0.761425 -2.93077 -4.07803
243 1 13.5997 13.0445 3.81435 0.761427 -2.93078 -4.07803
244 1 15.6227 11.0215 3.81435 0.761431 -2.93078 -4.07803
245 1 1.46166 11.0215 1.79135 0.761431 -2.93077 -4.07803
246 1 3.48466 13.0445 1.79135 0.761427 -2.93077 -4.07803
247 1 1.46166 13.0445 3.81435 0.761427 -2.93078 -4.07804
248 1 3.48466 11.0215 3.81435 0.761429 -2.93078 -4.07803
249 1 5.50766 11.0215 1.79135 0.761428 -2.93078 -4.07803
250 1 7.53066 13.0445 1.79135 0.761426 -2.93078 -4.07803
251 1 5.50766 13.0445 3.81435 0.761431 -2.93078 -4.07803
252 1 7.53066 11.0215 3.81435 0.761422 -2.93078 -4.07804
253 1 9.55366 11.0215 1.79135 0.761426 -2.93078 -4.07803
254 1 11.5767 13.0445 1.79135 0.761427 -2.93078 -4.07803
255 1 9.55366 13.0445 3.81435 0.761423 -2.93078 -4.07803
256 1 11.5767 11.0215 3.81435 0.761425 -2.93078 -4.07803
