ITEM: TIMESTEP
60000000
ITEM: NUMBER OF ATOMS
256
ITEM: BOX BOUNDS pp pp pp
0.0000000000000000e+00 1.6184000000000001e+01
0.0000000000000000e+00 1.6184000000000001e+01
0.0000000000000000e+00 1.6184000000000001e+01
ITEM: ATOMS id type x y z vx vy vz
1 1 11.6483 9.36674 12.2762 0.775624 -2.98543 -4.15408
2 1 13.6713 11.3897 12.2762 0.775622 -2.98543 -4.15408
3 1 11.6483 11.3897 14.2992 0.775625 -2.98543 -4.15408
4 1 13.6713 9.36674 14.2992 0.775622 -2.98543 -4.15408
5 1 15.6943 9.36674 12.2762 0.775623 -2.98544 -4.15408
6 1 1.53335 11.3897 12.2762 0.775634 -2.98543 -4.15408
7 1 15.6943 11.3897 14.2992 0.775628 -2.98543 -4.15408
8 1 1.53335 9.36674 14.2992 0.775626 -2.98543 -4.15408
9 1 3.55635 9.36674 12.2762 0.775628 -2.98543 -4.15408
10 1 5.57935 11.3897 12.2762 0.775635 -2.98543 -4.15409
11 1 3.55635 11.3897 14.2992 0.775629 -2.98543 -4.15408
12 1 5.57935 9.36674 14.2992 0.775624 -2.98543 -4.15408
13 1 7.60235 9.36674 12.2762 0.775622 -2.98543 -4.15408
14 1 9.62535 11.3897 12.2762 0.775622 -2.98543 -4.15408
15 1 7.60235 11.3897 14.2992 0.775626 -2.98543 -4.15408
16 1 9.62535 9.36674 14.2992 0.775624 -2.98543 -4.15408
17 1 11.6483 13.4127 12.2762 0.775628 -2.98543 -4.15407
18 1 13.6713 15.4357 12.2762 0.775613 -2.98543 -4.15408
19 1 11.6483 15.4357 14.2992 0.775628 -2.98543 -4.15408
20 1 13.6713 13.4127 14.2992 0.775629 -2.98543 -4.15408
21 1 15.6943 13.4127 12.2762 0.775627 -2.98543 -4.15408
22 1 1.53335 15.4357 12.2762 0.775624 -2.98543 -4.15409
23 1 15.6943 15.4357 14.2992 0.775627 -2.98543 -4.15408
24 1 1.53335 13.4127 14.2992 0.775628 -2.98543 -4.15408
25 1 3.55635 13.4127 12.2762 0.775627 -2.98543 -4.15408
26 1 5.57935 15.4357 12.2762 0.775629 -2.98543 -4.15408
27 1 3.55635 15.4357 14.2992 0.775626 -2.98543 -4.15408
28 1 5.57935 13.4127 14.2992 0.775626 -2.98543 -4.15408
29 1 7.60235 13.4127 12.2762 0.775624 -2.98543 -4.15408
30 1 9.62535 15.4357 12.2762 0.775626 -2.98543 -4.15408
31 1 7.60235 15.4357 14.2992 0.775624 -2.98543 -4.15408
32 1 9.62535 13.4127 14.2992 0.775625 -2.98542 -4.15408
33 1 11.6483 1.27474 12.2762 0.775622 -2.98543 -4.15408
34 1 13.6713 3.29774 12.2762 0.775625 -2.98543 -4.15407
35 1 11.6483 3.29774 14.2992 0.775626 -2.98543 -4.15408
36 1 13.6713 1.27474 14.2992 0.775623 -2.98544 -4.15407
37 1 15.6943 1.27474 12.2762 0.775621 -2.98544 -4.15408
38 1 1.53335 3.29774 12.2762 0.775629 -2.98543 -4.15408
39 1 15.6943 3.29774 14.2992 0.775625 -2.98543 -4.15408
40 1 1.53335 1.27474 14.2992 0.775624 -2.98543 -4.15408
41 1 3.55635 1.27474 12.2762 0.775629 -2.98543 -4.15408
42 1 5.57935 3.29774 12.2762 0.775619 -2.98543 -4.15408
43 1 3.55635 3.29774 14.2992 0.775623 -2.98542 -4.15408
44 1 5.57935 1.27474 14.2992 0.77563 -2.98543 -4.15407
45 1 7.60235 1.27474 12.2762 0.775624 -2.98543 -4.15408
46 1 9.62535 3.29774 12.2762 0.775624 -2.98542 -4.15408
47 1 7.60235 3.29774 14.2992 0.775625 -2.98542 -4.15408
48 1 9.62535 1.27474 14.2992 0.775625 -2.98543 -4.15409
49 1 11.6483 5.32074 12.2762 0.775627 -2.98543 -4.15408
50 1 13.6713 7.34374 12.2762 0.775629 -2.98543 -4.15408
51 1 11.6483 7.34374 14.2992 0.775627 -2.98543 -4.15408
52 1 13.6713 5.32074 14.2992 0.775623 -2.98543 -4.15408
53 1 15.6943 5.32074 12.2762 0.775627 -2.98543 -4.15408
54 1 1.53335 7.34374 12.2762 0.775624 -2.98543 -4.15408
55 1 15.6943 7.34374 14.2992 0.775628 -2.98544 -4.15408
56 1 1.53335 5.32074 14.2992 0.775619 -2.98543 -4.15408
57 1 3.55635 5.32074 12.2762 0.775631 -2.98543 -4.15408
58 1 5.57935 7.34374 12.2762 0.775624 -2.98543 -4.15408
59 1 3.55635 7.34374 14.2992 0.775621 -2.98543 -4.15408
60 1 5.57935 5.32074 14.2992 0.775624 -2.98543 -4.15408
61 1 7.60235 5.32074 12.2762 0.775628 -2.98543 -4.15408
62 1 9.62535 7.34374 12.2762 0.775628 -2.98542 -4.15408
63 1 7.60235 7.34374 14.2992 0.775631 -2.98543 -4.15408
64 1 9.62535 5.32074 14.2992 0.775624 -2.98543 -4.15408
65 1 11.6483 9.36674 0.13819 0.77563 -2.98543 -4.15408
66 1 13.6713 11.3897 0.13819 0.775627 -2.98543 -4.15408
67 1 11.6483 11.3897 2.16119 0.775632 -2.98543 -4.15408
68 1 13.6713 9.36674 2.16119 0.775622 -2.98544 -4.15407
69 1 15.6943 9.36674 0.13819 0.775625 -2.98543 -4.15408
70 1 1.53335 11.3897 0.13819 0.775629 -2.98543 -4.15407
71 1 15.6943 11.3897 2.16119 0.775631 -2.98543 -4.15408
72 1 1.53335 9.36674 2.16119 0.775624 -2.98543 -4.15408
73 1 3.55635 9.36674 0.13819 0.775625 -2.98543 -4.15408
74 1 5.57935 11.3897 0.13819 0.775624 -2.98543 -4.15408
75 1 3.55635 11.3897 2.16119 0.775623 -2.98543 -4.15408
76 1 5.57935 9.36674 2.16119 0.775627 -2.98543 -4.15408
77 1 7.60235 9.36674 0.13819 0.775626 -2.98543 -4.15407
78 1 9.62535 11.3897 0.138189 0.77563 -2.98542 -4.15408
79 1 7.60235 11.3897 2.16119 0.775626 -2.98543 -4.15408
80 1 9.62535 9.36674 2.16119 0.775625 -2.98543 -4.15408
81 1 11.6483 13.4127 0.138189 0.775621 -2.98543 -4.15409
82 1 13.6713 15.4357 0.138189 0.775627 -2.98543 -4.15409
83 1 11.6483 15.4357 2.16119 0.775623 -2.98543 -4.15408
84 1 13.6713 13.4127 2.16119 0.77563 -2.98543 -4.15408
85 1 15.6943 13.4127 0.138189 0.775626 -2.98544 -4.15408
86 1 1.53335 15.4357 0.13819 0.775625 -2.98543 -4.15408
87 1 15.6943 15.4357 2.16119 0.775625 -2.98543 -4.15408
88 1 1.53335 13.4127 2.16119 0.775629 -2.98543 -4.15408
89 1 3.55635 13.4127 0.138189 0.775628 -2.98543 -4.15408
90 1 5.57935 15.4357 0.138189 0.775626 -2.98542 -4.15408
91 1 3.55635 15.4357 2.16119 0.775626 -2.98543 -4.15408
92 1 5.57935 13.4127 2.16119 0.775626 -2.98543 -4.15408
93 1 7.60235 13.4127 0.138189 0.775624 -2.98543 -4.15408
94 1 9.62535 15.4357 0.138189 0.775625 -2.98543 -4.15408
95 1 7.60235 15.4357 2.16119 0.775624 -2.98543 -4.15408
96 1 9.62535 13.4127 2.16119 0.775625 -2.98543 -4.15408
97 1 11.6483 1.27474 0.138189 0.775632 -2.98543 -4.15408
98 1 13.6713 3.29774 0.138189 0.775624 -2.98543 -4.15408
99 1 11.6483 3.29774 2.16119 0.775629 -2.98543 -4.15409
100 1 13.6713 1.27474 2.16119 0.775631 -2.98543 -4.15408
101 1 15.6943 1.27474 0.138189 0.775624 -2.98543 -4.15408
102 1 1.53335 3.29774 0.138189 0.775624 -2.98543 -4.15408
103 1 15.6943 3.29774 2.16119 0.775628 -2.98543 -4.15409
104 1 1.53335 1.27474 2.16119 0.775626 -2.98543 -4.15407
105 1 3.55635 1.27474 0.138189 0.775624 -2.98543 -4.15408
106 1 5.57935 3.29774 0.138189 0.775623 -2.98542 -4.15409
107 1 3.55635 3.29774 2.16119 0.775627 -2.98543 -4.15408
108 1 5.57935 1.27474 2.16119 0.775624 -2.98543 -4.15408
109 1 7.60235 1.27474 0.138189 0.775625 -2.98543 -4.15408
110 1 9.62535 3.29774 0.138189 0.775622 -2.98542 -4.15408
111 1 7.60235 3.29774 2.16119 0.775625 -2.98543 -4.15408
112 1 9.62535 1.27474 2.16119 0.775624 -2.98543 -4.15408
113 1 11.6483 5.32074 0.138189 0.775623 -2.98543 -4.15408
114 1 13.6713 7.34374 0.13819 0.775632 -2.98542 -4.15408
115 1 11.6483 7.34374 2.16119 0.77563 -2.98543 -4.15408
116 1 13.6713 5.32074 2.16119 0.775628 -2.98543 -4.15408
117 1 15.6943 5.32074 0.13819 0.775631 -2.98543 -4.15408
118 1 1.53335 7.34374 0.13819 0.77563 -2.98543 -4.15408
119 1 15.6943 7.34374 2.16119 0.775625 -2.98543 -4.15408
120 1 1.53335 5.32074 2.16119 0.775629 -2.98543 -4.15408
121 1 3.55635 5.32074 0.138189 0.775618 -2.98543 -4.15408
122 1 5.57935 7.34374 0.13819 0.775625 -2.98543 -4.15408
123 1 3.55635 7.34374 2.16119 0.775623 -2.98543 -4.15409
124 1 5.57935 5.32074 2.16119 0.775624 -2.98543 -4.15408
125 1 7.60235 5.32074 0.13819 0.775627 -2.98543 -4.15408
126 1 9.62535 7.34374 0.13819 0.775625 -2.98543 -4.15408
127 1 7.60235 7.34374 2.16119 0.775625 -2.98543 -4.15408
128 1 9.62535 5.32074 2.16119 0.775626 -2.98543 -4.15408
129 1 11.6483 9.36674 4.18419 0.775625 -2.98543 -4.15408
130 1 13.6713 11.3897 4.18419 0.775631 -2.98543 -4.15408
131 1 11.6483 11.3897 6.20719 0.775625 -2.98543 -4.15408
132 1 13.6713 9.36674 6.20719 0.77563 -2.98543 -4.15408
133 1 15.6943 9.36674 4.18419 0.775629 -2.98542 -4.15408
134 1 1.53335 11.3897 4.18419 0.775619 -2.98542 -4.15408
135 1 15.6943 11.3897 6.20719 0.775629 -2.98543 -4.15408
136 1 1.53335 9.36674 6.20719 0.77563 -2.98543 -4.15408
137 1 3.55635 9.36674 4.18419 0.775623 -2.98543 -4.15408
138 1 5.57935 11.3897 4.18419 0.775627 -2.98543 -4.15408
139 1 3.55635 11.3897 6.20719 0.775626 -2.98543 -4.15408
140 1 5.57935 9.36674 6.20719 0.775621 -2.98543 -4.15408
141 1 7.60235 9.36674 4.18419 0.775631 -2.98543 -4.15408
142 1 9.62535 11.3897 4.18419 0.775628 -2.98543 -4.15408
143 1 7.60235 11.3897 6.20719 0.775626 -2.98543 -4.15408
144 1 9.62535 9.36674 6.20719 0.775629 -2.98543 -4.15408
145 1 11.6483 13.4127 4.18419 0.775626 -2.98543 -4.15408
146 1 13.6713 15.4357 4.18419 0.775627 -2.98542 -4.15408
147 1 11.6483 15.4357 6.20719 0.775624 -2.98544 -4.15408
148 1 13.6713 13.4127 6.20719 0.775625 -2.98543 -4.15408
149 1 15.6943 13.4127 4.18419 0.775631 -2.98543 -4.15408
150 1 1.53335 15.4357 4.18419 0.775622 -2.98543 -4.15407
151 1 15.6943 15.4357 6.20719 0.775625 -2.98543 -4.15409
152 1 1.53335 13.4127 6.20719 0.775629 -2.98543 -4.15408
153 1 3.55635 13.4127 4.18419 0.775623 -2.98543 -4.15408
154 1 5.57935 15.4357 4.18419 0.775626 -2.98543 -4.15408
155 1 3.55635 15.4357 6.20719 0.775632 -2.98543 -4.15408
156 1 5.57935 13.4127 6.20719 0.775621 -2.98543 -4.15407
157 1 7.60235 13.4127 4.18419 0.775628 -2.98543 -4.15408
158 1 9.62535 15.4357 4.18419 0.775627 -2.98543 -4.15408
159 1 7.60235 15.4357 6.20719 0.775629 -2.98543 -4.15408
160 1 9.62535 13.4127 6.20719 0.775628 -2.98543 -4.15408
161 1 11.6483 1.27474 4.18419 0.775621 -2.98543 -4.15408
162 1 13.6713 3.29774 4.18419 0.775629 -2.98542 -4.15408
163 1 11.6483 3.29774 6.20719 0.775632 -2.98542 -4.15408
164 1 13.6713 1.27474 6.20719 0.775625 -2.98543 -4.15408
165 1 15.6943 1.27474 4.18419 0.775632 -2.98543 -4.15408
166 1 1.53335 3.29774 4.18419 0.775632 -2.98543 -4.15409
167 1 15.6943 3.29774 6.20719 0.775624 -2.98543 -4.15408
168 1 1.53335 1.27474 6.20719 0.775629 -2.98543 -4.15408
169 1 3.55635 1.27474 4.18419 0.775626 -2.98544 -4.15408
170 1 5.57935 3.29774 4.18419 0.775626 -2.98543 -4.15409
171 1 3.55635 3.29774 6.20719 0.775623 -2.98543 -4.15408
172 1 5.57935 1.27474 6.20719 0.775628 -2.98543 -4.15408
173 1 7.60235 1.27474 4.18419 0.775625 -2.98543 -4.15408
174 1 9.62535 3.29774 4.18419 0.775625 -2.98543 -4.15408
175 1 7.60235 3.29774 6.20719 0.775627 -2.98542 -4.15408
176 1 9.62535 1.27474 6.20719 0.775625 -2.98543 -4.15408
177 1 11.6483 5.32074 4.18419 0.775622 -2.98543 -4.15408
178 1 13.6713 7.34374 4.18419 0.775627 -2.98543 -4.15407
179 1 11.6483 7.34374 6.20719 0.775624 -2.98542 -4.15407
180 1 13.6713 5.32074 6.20719 0.775628 -2.98543 -4.15408
181 1 15.6943 5.32074 4.18419 0.775626 -2.98543 -4.15408
182 1 1.53335 7.34374 4.18419 0.775628 -2.98543 -4.15408
183 1 15.6943 7.34374 6.20719 0.775625 -2.98543 -4.15409
184 1 1.53335 5.32074 6.20719 0.775623 -2.98543 -4.15407
185 1 3.55635 5.32074 4.18419 0.775626 -2.98543 -4.15408
186 1 5.57935 7.34374 4.18419 0.77563 -2.98543 -4.15408
187 1 3.55635 7.34374 6.20719 0.775624 -2.98543 -4.15408
188 1 5.57935 5.32074 6.20719 0.775625 -2.98543 -4.15408
189 1 7.60235 5.32074 4.18419 0.775625 -2.98543 -4.15409
190 1 9.62535 7.34374 4.18419 0.77562 -2.98543 -4.15408
191 1 7.60235 7.34374 6.20719 0.775619 -2.98543 -4.15408
192 1 9.62535 5.32074 6.20719 0.775635 -2.98543 -4.15408
193 1 11.6483 9.36674 8.23019 0.775629 -2.98543 -4.15408
194 1 13.6713 11.3897 8.23019 0.775625 -2.98543 -4.15408
195 1 11.6483 11.3897 10.2532 0.775623 -2.98543 -4.15408
196 1 13.6713 9.36674 10.2532 0.77563 -2.98543 -4.15408
197 1 15.6943 9.36674 8.23019 0.775621 -2.98543 -4.15408
198 1 1.53335 11.3897 8.23019 0.775632 -2.98543 -4.15407
199 1 15.6943 11.3897 10.2532 0.775622 -2.98543 -4.15408
200 1 1.53335 9.36674 10.2532 0.775627 -2.98543 -4.15408
201 1 3.55635 9.36674 8.23019 0.775633 -2.98542 -4.15408
202 1 5.57935 11.3897 8.23019 0.775625 -2.98543 -4.15408
203 1 3.55635 11.3897 10.2532 0.775626 -2.98543 -4.15408
204 1 5.57935 9.36674 10.2532 0.775632 -2.98543 -4.15409
205 1 7.60235 9.36674 8.23019 0.775628 -2.98543 -4.15408
206 1 9.62535 11.3897 8.23019 0.77563 -2.98543 -4.15408
207 1 7.60235 11.3897 10.2532 0.775631 -2.98543 -4.15408
208 1 9.62535 9.36674 10.2532 0.775624 -2.98543 -4.15408
209 1 11.6483 13.4127 8.23019 0.775629 -2.98543 -4.15408
210 1 13.6713 15.4357 8.23019 0.775621 -2.98543 -4.15408
211 1 11.6483 15.4357 10.2532 0.775626 -2.98543 -4.15408
212 1 13.6713 13.4127 10.2532 0.775626 -2.98543 -4.15409
213 1 15.6943 13.4127 8.23019 0.775625 -2.98543 -4.15408
214 1 1.53335 15.4357 8.23019 0.775625 -2.98543 -4.15408
215 1 15.6943 15.4357 10.2532 0.775629 -2.98543 -4.15407
216 1 1.53335 13.4127 10.2532 0.775621 -2.98543 -4.15408
217 1 3.55635 13.4127 8.23019 0.775626 -2.98543 -4.15409
218 1 5.57935 15.4357 8.23019 0.775629 -2.98543 -4.15408
219 1 3.55635 15.4357 10.2532 0.775634 -2.98543 -4.15408
220 1 5.57935 13.4127 10.2532 0.775627 -2.98543 -4.15408
221 1 7.60235 13.4127 8.23019 0.775628 -2.98543 -4.15408
222 1 9.62535 15.4357 8.23019 0.77563 -2.98544 -4.15408
223 1 7.60235 15.4357 10.2532 0.775626 -2.98543 -4.15408
224 1 9.62535 13.4127 10.2532 0.775617 -2.98543 -4.15409
225 1 11.6483 1.27474 8.23019 0.775625 -2.98542 -4.15408
226 1 13.6713 3.29774 8.23019 0.775627 -2.98543 -4.15408
227 1 11.6483 3.29774 10.2532 0.775621 -2.98543 -4.15408
228 1 13.6713 1.27474 10.2532 0.775624 -2.98543 -4.15407
229 1 15.6943 1.27474 8.23019 0.775624 -2.98543 -4.15408
230 1 1.53335 3.29774 8.23019 0.775627 -2.98543 -4.15408
231 1 15.6943 3.29774 10.2532 0.775618 -2.98542 -4.15408
232 1 1.53335 1.27474 10.2532 0.775624 -2.98543 -4.15408
233 1 3.55635 1.27474 8.23019 0.775627 -2.98543 -4.15408
234 1 5.57935 3.29774 8.23019 0.77563 -2.98544 -4.15408
235 1 3.55635 3.29774 10.2532 0.775625 -2.98543 -4.15408
236 1 5.57935 1.27474 10.2532 0.775628 -2.98542 -4.15408
237 1 7.60235 1.27474 8.23019 0.775626 -2.98543 -4.15408
238 1 9.62535 3.29774 8.23019 0.775625 -2.98543 -4.15408
239 1 7.60235 3.29774 10.2532 0.775626 -2.98542 -4.15408
240 1 9.62535 1.27474 10.2532 0.775623 -2.98543 -4.15408
241 1 11.6483 5.32074 8.23019 0.775625 -2.98543 -4.15408
242 1 13.6713 7.34374 8.23019 0.775621 -2.98544 -4.15409
243 1 11.6483 7.34374 10.2532 0.77563 -2.98544 -4.15408
244 1 13.6713 5.32074 10.2532 0.775627 -2.98543 -4.15407
245 1 15.6943 5.32074 8.23019 0.775622 -2.98543 -4.15407
246 1 1.53335 7.34374 8.23019 0.775628 -2.98543 -4.15408
247 1 15.6943 7.34374 10.2532 0.775619 -2.98543 -4.15408
248 1 1.53335 5.32074 10.2532 0.775623 -2.98543 -4.15408
249 1 3.55635 5.32074 8.23019 0.77563 -2.98543 -4.15409
250 1 5.57935 7.34374 8.23019 0.77562 -2.98542 -4.15408
251 1 3.55635 7.34374 10.2532 0.775626 -2.98542 -4.15407
252 1 5.57935 5.32074 10.2532 0.775626 -2.98543 -4.15408
253 1 7.60235 5.32074 8.23019 0.775624 -2.98543 -4.15408
254 1 9.62535 7.34374 8.23019 0.775624 -2.98543 -4.15408
255 1 7.60235 7.34374 10.2532 0.775627 -2.98543 -4.15408
256 1 9.62535 5.32074 10.2532 0.775622 -2.98543 -4.15408
