ITEM: TIMESTEP
74000000
ITEM: NUMBER OF ATOMS
256
ITEM: BOX BOUNDS pp pp pp
0.0000000000000000e+00 1.6184000000000001e+01
0.0000000000000000e+00 1.6184000000000001e+01
0.0000000000000000e+00 1.6184000000000001e+01
ITEM: ATOMS id type x y z vx vy vz
1 1 8.35537 1.54712 14.9398 0.807822 -3.10935 -4.3265
2 1 10.3784 3.57012 14.9398 0.807814 -3.10935 -4.32651
3 1 8.35537 3.57012 0.778793 0.80782 -3.10935 -4.3265
4 1 10.3784 1.54712 0.778793 0.807819 -3.10934 -4.32651
5 1 12.4014 1.54712 14.9398 0.807818 -3.10935 -4.3265
6 1 14.4244 3.57012 14.9398 0.807823 -3.10935 -4.3265
7 1 12.4014 3.57012 0.778793 0.807819 -3.10935 -4.32651
8 1 14.4244 1.54712 0.778794 0.807821 -3.10935 -4.32651
9 1 0.263369 1.54712 14.9398 0.807821 -3.10935 -4.32651
10 1 2.28637 3.57012 14.9398 0.807822 -3.10935 -4.3265
11 1 0.263369 3.57012 0.778793 0.80782 -3.10935 -4.32651
12 1 2.28637 1.54712 0.778793 0.807826 -3.10935 -4.32651
13 1 4.30937 1.54712 14.9398 0.807824 -3.10935 -4.32651
14 1 6.33237 3.57012 14.9398 0.807819 -3.10934 -4.32651
15 1 4.30937 3.57012 0.778793 0.807817 -3.10934 -4.32651
16 1 6.33237 1.54712 0.778793 0.807825 -3.10935 -4.32651
17 1 8.35537 5.59312 14.9398 0.807819 -3.10935 -4.32651
18 1 10.3784 7.61612 14.9398 0.807821 -3.10935 -4.3265
19 1 8.35537 7.61612 0.778793 0.807819 -3.10935 -4.32651
20 1 10.3784 5.59312 0.778793 0.807821 -3.10934 -4.32651
21 1 12.4014 5.59312 14.9398 0.807819 -3.10935 -4.32651
22 1 14.4244 7.61612 14.9398 0.807821 -3.10936 -4.32651
23 1 12.4014 7.61612 0.778793 0.807819 -3.10935 -4.32651
24 1 14.4244 5.59312 0.778793 0.807828 -3.10935 -4.32651
25 1 0.263369 5.59312 14.9398 0.807818 -3.10934 -4.3265
26 1 2.28637 7.61612 14.9398 0.807826 -3.10935 -4.32651
27 1 0.263369 7.61612 0.778793 0.80782 -3.10935 -4.32651
28 1 2.28637 5.59312 0.778793 0.807817 -3.10934 -4.32651
29 1 4.30937 5.59312 14.9398 0.807817 -3.10935 -4.32651
30 1 6.33237 7.61612 14.9398 0.807818 -3.10935 -4.32652
31 1 4.30937 7.61612 0.778793 0.807822 -3.10934 -4.32651
32 1 6.33237 5.59312 0.778793 0.807815 -3.10934 -4.3265
33 1 8.35537 9.63912 14.9398 0.807817 -3.10935 -4.32651
34 1 10.3784 11.6621 14.9398 0.80782 -3.10935 -4.32651
35 1 8.35537 11.6621 0.778793 0.807822 -3.10935 -4.32651
36 1 10.3784 9.63912 0.778793 0.807818 -3.10935 -4.32651
37 1 12.4014 9.63912 14.9398 0.807817 -3.10935 -4.3265
38 1 14.4244 11.6621 14.9398 0.807812 -3.10935 -4.32651
39 1 12.4014 11.6621 0.778793 0.807814 -3.10935 -4.32651
40 1 14.4244 9.63912 0.778793 0.807821 -3.10935 -4.32651
41 1 0.263369 9.63912 14.9398 0.807816 -3.10935 -4.32651
42 1 2.28637 11.6621 14.9398 0.807818 -3.10935 -4.32651
43 1 0.263369 11.6621 0.778793 0.807812 -3.10935 -4.32651
44 1 2.28637 9.63912 0.778793 0.807817 -3.10934 -4.32651
45 1 4.30937 9.63912 14.9398 0.80782 -3.10935 -4.32651
46 1 6.33237 11.6621 14.9398 0.807811 -3.10935 -4.32651
47 1 4.30937 11.6621 0.778793 0.80782 -3.10935 -4.32651
48 1 6.33237 9.63912 0.778793 0.807817 -3.10935 -4.32651
49 1 8.35537 13.6851 14.9398 0.807815 -3.10935 -4.3265
50 1 10.3784 15.7081 14.9398 0.807825 -3.10935 -4.3265
51 1 8.35537 15.7081 0.778793 0.80783 -3.10935 -4.3265
52 1 10.3784 13.6851 0.778793 0.807818 -3.10934 -4.3265
53 1 12.4014 13.6851 14.9398 0.807817 -3.10935 -4.3265
54 1 14.4244 15.7081 14.9398 0.807824 -3.10935 -4.3265
55 1 12.4014 15.7081 0.778793 0.807815 -3.10935 -4.32651
56 1 14.4244 13.6851 0.778793 0.807813 -3.10935 -4.3265
57 1 0.263369 13.6851 14.9398 0.807816 -3.10935 -4.3265
58 1 2.28637 15.7081 14.9398 0.807821 -3.10935 -4.32651
59 1 0.263369 15.7081 0.778793 0.807818 -3.10935 -4.3265
60 1 2.28637 13.6851 0.778793 0.807819 -3.10935 -4.3265
61 1 4.30937 13.6851 14.9398 0.807814 -3.10935 -4.32652
62 1 6.33237 15.7081 14.9398 0.807818 -3.10935 -4.32651
63 1 4.30937 15.7081 0.778793 0.807821 -3.10935 -4.32651
64 1 6.33237 13.6851 0.778793 0.807818 -3.10934 -4.32651
65 1 8.35537 1.54712 2.80179 0.807819 -3.10935 -4.32651
66 1 10.3784 3.57012 2.80179 0.80782 -3.10935 -4.32651
67 1 8.35537 3.57012 4.82479 0.807821 -3.10935 -4.32651
68 1 10.3784 1.54712 4.82479 0.807824 -3.10935 -4.3265
69 1 12.4014 1.54712 2.80179 0.807822 -3.10935 -4.3265
70 1 14.4244 3.57012 2.80179 0.80782 -3.10935 -4.3265
71 1 12.4014 3.57012 4.82479 0.80783 -3.10935 -4.3265
72 1 14.4244 1.54712 4.82479 0.807817 -3.10934 -4.3265
73 1 0.263369 1.54712 2.80179 0.807819 -3.10935 -4.3265
74 1 2.28637 3.57012 2.80179 0.807823 -3.10935 -4.3265
75 1 0.263369 3.57012 4.82479 0.807821 -3.10935 -4.32651
76 1 2.28637 1.54712 4.82479 0.807827 -3.10935 -4.3265
77 1 4.30937 1.54712 2.80179 0.807819 -3.10934 -4.3265
78 1 6.33237 3.57012 2.80179 0.807823 -3.10934 -4.32651
79 1 4.30937 3.57012 4.82479 0.80782 -3.10935 -4.3265
80 1 6.33237 1.54712 4.82479 0.807822 -3.10934 -4.3265
81 1 8.35537 5.59312 2.80179 0.807824 -3.10935 -4.32652
82 1 10.3784 7.61612 2.80179 0.807822 -3.10935 -4.3265
83 1 8.35537 7.61612 4.82479 0.807821 -3.10935 -4.32651
84 1 10.3784 5.59312 4.82479 0.80783 -3.10935 -4.32651
85 1 12.4014 5.59312 2.80179 0.807825 -3.10935 -4.32651
86 1 14.4244 7.61612 2.80179 0.807821 -3.10935 -4.32651
87 1 12.4014 7.61612 4.82479 0.80782 -3.10935 -4.32651
88 1 14.4244 5.59312 4.82479 0.807825 -3.10935 -4.32651
89 1 0.263369 5.59312 2.80179 0.807818 -3.10935 -4.32651
90 1 2.28637 7.61612 2.80179 0.807818 -3.10935 -4.32651
91 1 0.263369 7.61612 4.82479 0.807822 -3.10935 -4.3265
92 1 2.28637 5.59312 4.82479 0.807814 -3.10935 -4.32651
93 1 4.30937 5.59312 2.80179 0.80782 -3.10935 -4.3265
94 1 6.33237 7.61612 2.80179 0.807823 -3.10935 -4.32651
95 1 4.30937 7.61612 4.82479 0.807824 -3.10935 -4.32651
96 1 6.33237 5.59312 4.82479 0.807818 -3.10934 -4.32651
97 1 8.35537 9.63912 2.80179 0.80782 -3.10934 -4.32651
98 1 10.3784 11.6621 2.80179 0.807823 -3.10935 -4.3265
99 1 8.35537 11.6621 4.82479 0.807822 -3.10935 -4.32651
100 1 10.3784 9.63912 4.82479 0.807819 -3.10934 -4.32652
101 1 12.4014 9.63912 2.80179 0.807811 -3.10935 -4.32651
102 1 14.4244 11.6621 2.80179 0.807819 -3.10934 -4.3265
103 1 12.4014 11.6621 4.82479 0.807821 -3.10935 -4.32651
104 1 14.4244 9.63912 4.82479 0.807821 -3.10934 -4.3265
105 1 0.263369 9.63912 2.80179 0.807821 -3.10935 -4.32651
106 1 2.28637 11.6621 2.80179 0.807817 -3.10935 -4.32651
107 1 0.263369 11.6621 4.82479 0.807814 -3.10935 -4.32651
108 1 2.28637 9.63912 4.82479 0.807824 -3.10935 -4.3265
109 1 4.30937 9.63912 2.80179 0.807817 -3.10935 -4.32651
110 1 6.33237 11.6621 2.80179 0.807822 -3.10934 -4.32651
111 1 4.30937 11.6621 4.82479 0.807824 -3.10935 -4.32651
112 1 6.33237 9.63912 4.82479 0.80782 -3.10935 -4.32651
113 1 8.35537 13.6851 2.80179 0.807819 -3.10935 -4.32651
114 1 10.3784 15.7081 2.80179 0.807813 -3.10934 -4.3265
115 1 8.35537 15.7081 4.82479 0.807823 -3.10935 -4.3265
116 1 10.3784 13.6851 4.82479 0.807818 -3.10935 -4.32651
117 1 12.4014 13.6851 2.80179 0.807824 -3.10934 -4.3265
118 1 14.4244 15.7081 2.80179 0.807823 -3.10935 -4.32651
119 1 12.4014 15.7081 4.82479 0.807824 -3.10935 -4.3265
120 1 14.4244 13.6851 4.82479 0.807815 -3.10935 -4.3265
121 1 0.263369 13.6851 2.80179 0.807819 -3.10935 -4.32651
122 1 2.28637 15.7081 2.80179 0.807811 -3.10935 -4.32651
123 1 0.26337 15.7081 4.82479 0.807819 -3.10936 -4.3265
124 1 2.28637 13.6851 4.82479 0.807822 -3.10935 -4.32651
125 1 4.30937 13.6851 2.80179 0.807818 -3.10935 -4.32652
126 1 6.33237 15.7081 2.80179 0.807826 -3.10935 -4.32651
127 1 4.30937 15.7081 4.82479 0.807822 -3.10934 -4.32651
128 1 6.33237 13.6851 4.82479 0.807824 -3.10935 -4.32651
129 1 8.35537 1.54712 6.84779 0.807826 -3.10934 -4.32651
130 1 10.3784 3.57012 6.84779 0.807822 -3.10935 -4.32651
131 1 8.35537 3.57012 8.87079 0.807824 -3.10934 -4.32651
132 1 10.3784 1.54712 8.87079 0.807817 -3.10935 -4.3265
133 1 12.4014 1.54712 6.84779 0.807823 -3.10935 -4.3265
134 1 14.4244 3.57012 6.84779 0.80782 -3.10935 -4.3265
135 1 12.4014 3.57012 8.87079 0.807821 -3.10935 -4.32651
136 1 14.4244 1.54712 8.87079 0.807819 -3.10935 -4.32651
137 1 0.263369 1.54712 6.84779 0.807826 -3.10934 -4.32651
138 1 2.28637 3.57012 6.84779 0.807817 -3.10935 -4.3265
139 1 0.26337 3.57012 8.87079 0.807821 -3.10935 -4.3265
140 1 2.28637 1.54712 8.87079 0.807818 -3.10935 -4.3265
141 1 4.30937 1.54712 6.84779 0.807817 -3.10935 -4.32651
142 1 6.33237 3.57012 6.84779 0.807825 -3.10934 -4.3265
143 1 4.30937 3.57012 8.87079 0.807824 -3.10934 -4.32651
144 1 6.33237 1.54712 8.87079 0.80782 -3.10934 -4.32651
145 1 8.35537 5.59312 6.84779 0.807825 -3.10935 -4.32651
146 1 10.3784 7.61612 6.84779 0.807819 -3.10935 -4.32651
147 1 8.35537 7.61612 8.87079 0.807823 -3.10935 -4.32651
148 1 10.3784 5.59312 8.87079 0.807822 -3.10934 -4.32651
149 1 12.4014 5.59312 6.84779 0.807826 -3.10935 -4.32651
150 1 14.4244 7.61612 6.84779 0.807825 -3.10935 -4.32651
151 1 12.4014 7.61612 8.87079 0.807819 -3.10935 -4.3265
152 1 14.4244 5.59312 8.87079 0.807818 -3.10935 -4.3265
153 1 0.263369 5.59312 6.84779 0.80782 -3.10935 -4.3265
154 1 2.28637 7.61612 6.84779 0.807819 -3.10935 -4.32651
155 1 0.263369 7.61612 8.87079 0.80782 -3.10935 -4.32651
156 1 2.28637 5.59312 8.87079 0.807822 -3.10935 -4.32651
157 1 4.30937 5.59312 6.84779 0.807829 -3.10934 -4.32651
158 1 6.33237 7.61612 6.84779 0.80782 -3.10935 -4.32651
159 1 4.30937 7.61612 8.87079 0.807829 -3.10935 -4.32651
160 1 6.33237 5.59312 8.87079 0.807819 -3.10935 -4.32651
161 1 8.35537 9.63912 6.84779 0.807822 -3.10934 -4.32651
162 1 10.3784 11.6621 6.84779 0.807819 -3.10934 -4.32651
163 1 8.35537 11.6621 8.87079 0.807819 -3.10935 -4.32651
164 1 10.3784 9.63912 8.87079 0.807824 -3.10934 -4.3265
165 1 12.4014 9.63912 6.84779 0.80782 -3.10935 -4.32651
166 1 14.4244 11.6621 6.84779 0.807821 -3.10936 -4.32651
167 1 12.4014 11.6621 8.87079 0.807822 -3.10935 -4.32651
168 1 14.4244 9.63912 8.87079 0.80782 -3.10935 -4.32651
169 1 0.263369 9.63912 6.84779 0.807822 -3.10935 -4.32651
170 1 2.28637 11.6621 6.84779 0.80782 -3.10935 -4.32652
171 1 0.263369 11.6621 8.87079 0.807819 -3.10935 -4.32651
172 1 2.28637 9.63912 8.87079 0.807819 -3.10935 -4.32651
173 1 4.30937 9.63912 6.84779 0.807822 -3.10934 -4.32651
174 1 6.33237 11.6621 6.84779 0.807823 -3.10935 -4.32651
175 1 4.30937 11.6621 8.87079 0.80782 -3.10935 -4.32651
176 1 6.33237 9.63912 8.87079 0.80782 -3.10935 -4.32651
177 1 8.35537 13.6851 6.84779 0.807822 -3.10934 -4.32651
178 1 10.3784 15.7081 6.84779 0.807818 -3.10935 -4.3265
179 1 8.35537 15.7081 8.87079 0.807821 -3.10935 -4.3265
180 1 10.3784 13.6851 8.87079 0.807822 -3.10934 -4.32651
181 1 12.4014 13.6851 6.84779 0.807823 -3.10935 -4.32651
182 1 14.4244 15.7081 6.84779 0.807826 -3.10935 -4.32651
183 1 12.4014 15.7081 8.87079 0.807823 -3.10935 -4.3265
184 1 14.4244 13.6851 8.87079 0.807829 -3.10935 -4.32651
185 1 0.263369 13.6851 6.84779 0.807824 -3.10935 -4.32651
186 1 2.28637 15.7081 6.84779 0.807817 -3.10935 -4.3265
187 1 0.26337 15.7081 8.87079 0.807817 -3.10935 -4.32651
188 1 2.28637 13.6851 8.87079 0.807818 -3.10934 -4.3265
189 1 4.30937 13.6851 6.84779 0.807823 -3.10935 -4.3265
190 1 6.33237 15.7081 6.84779 0.807817 -3.10935 -4.32651
191 1 4.30937 15.7081 8.87079 0.807817 -3.10935 -4.3265
192 1 6.33237 13.6851 8.87079 0.807818 -3.10934 -4.32651
193 1 8.35537 1.54712 10.8938 0.807821 -3.10934 -4.32651
194 1 10.3784 3.57012 10.8938 0.80782 -3.10935 -4.32651
195 1 8.35537 3.57012 12.9168 0.80782 -3.10935 -4.32651
196 1 10.3784 1.54712 12.9168 0.807817 -3.10935 -4.32651
197 1 12.4014 1.54712 10.8938 0.807823 -3.10934 -4.3265
198 1 14.4244 3.57012 10.8938 0.807819 -3.10935 -4.3265
199 1 12.4014 3.57012 12.9168 0.807815 -3.10935 -4.32651
200 1 14.4244 1.54712 12.9168 0.807822 -3.10935 -4.3265
201 1 0.263369 1.54712 10.8938 0.807825 -3.10934 -4.3265
202 1 2.28637 3.57012 10.8938 0.807824 -3.10935 -4.32651
203 1 0.263369 3.57012 12.9168 0.807825 -3.10935 -4.3265
204 1 2.28637 1.54712 12.9168 0.807821 -3.10935 -4.32651
205 1 4.30937 1.54712 10.8938 0.807819 -3.10935 -4.3265
206 1 6.33237 3.57012 10.8938 0.807826 -3.10935 -4.3265
207 1 4.30937 3.57012 12.9168 0.807821 -3.10935 -4.32651
208 1 6.33237 1.54712 12.9168 0.807825 -3.10935 -4.3265
209 1 8.35537 5.59312 10.8938 0.807829 -3.10935 -4.32651
210 1 10.3784 7.61612 10.8938 0.80782 -3.10935 -4.32651
211 1 8.35537 7.61612 12.9168 0.807818 -3.10934 -4.32652
212 1 10.3784 5.59312 12.9168 0.807821 -3.10935 -4.3265
213 1 12.4014 5.59312 10.8938 0.807823 -3.10934 -4.3265
214 1 14.4244 7.61612 10.8938 0.807822 -3.10935 -4.32651
215 1 12.4014 7.61612 12.9168 0.807816 -3.10936 -4.32651
216 1 14.4244 5.59312 12.9168 0.807825 -3.10936 -4.3265
217 1 0.263369 5.59312 10.8938 0.807818 -3.10935 -4.32651
218 1 2.28637 7.61612 10.8938 0.807822 -3.10935 -4.32651
219 1 0.263369 7.61612 12.9168 0.80782 -3.10934 -4.32651
220 1 2.28637 5.59312 12.9168 0.807826 -3.10934 -4.32651
221 1 4.30937 5.59312 10.8938 0.807828 -3.10935 -4.32651
222 1 6.33237 7.61612 10.8938 0.807822 -3.10935 -4.32651
223 1 4.30937 7.61612 12.9168 0.807817 -3.10935 -4.32651
224 1 6.33237 5.59312 12.9168 0.807818 -3.10935 -4.32651
225 1 8.35537 9.63912 10.8938 0.807818 -3.10935 -4.3265
226 1 10.3784 11.6621 10.8938 0.80782 -3.10935 -4.32651
227 1 8.35537 11.6621 12.9168 0.807819 -3.10935 -4.3265
228 1 10.3784 9.63912 12.9168 0.807814 -3.10935 -4.32651
229 1 12.4014 9.63912 10.8938 0.807821 -3.10935 -4.32651
230 1 14.4244 11.6621 10.8938 0.807827 -3.10935 -4.32651
231 1 12.4014 11.6621 12.9168 0.807819 -3.10935 -4.32651
232 1 14.4244 9.63912 12.9168 0.807822 -3.10935 -4.32651
233 1 0.263369 9.63912 10.8938 0.807823 -3.10935 -4.3265
234 1 2.28637 11.6621 10.8938 0.807819 -3.10935 -4.32651
235 1 0.263369 11.6621 12.9168 0.80782 -3.10935 -4.32651
236 1 2.28637 9.63912 12.9168 0.807821 -3.10935 -4.32651
237 1 4.30937 9.63912 10.8938 0.807813 -3.10935 -4.32651
238 1 6.33237 11.6621 10.8938 0.807818 -3.10935 -4.32651
239 1 4.30937 11.6621 12.9168 0.807815 -3.10935 -4.32651
240 1 6.33237 9.63912 12.9168 0.807818 -3.10935 -4.32651
241 1 8.35537 13.6851 10.8938 0.807822 -3.10934 -4.32651
242 1 10.3784 15.7081 10.8938 0.80782 -3.10935 -4.32651
243 1 8.35537 15.7081 12.9168 0.807818 -3.10935 -4.3265
244 1 10.3784 13.6851 12.9168 0.807822 -3.10935 -4.3265
245 1 12.4014 13.6851 10.8938 0.807821 -3.10935 -4.3265
246 1 14.4244 15.7081 10.8938 0.807822 -3.10935 -4.3265
247 1 12.4014 15.7081 12.9168 0.807812 -3.10935 -4.3265
248 1 14.4244 13.6851 12.9168 0.807815 -3.10935 -4.32651
249 1 0.263369 13.6851 10.8938 0.807815 -3.10935 -4.3265
250 1 2.28637 15.7081 10.8938 0.807826 -3.10935 -4.3265
251 1 0.263369 15.7081 12.9168 0.807821 -3.10934 -4.32651
252 1 2.28637 13.6851 12.9168 0.807825 -3.10935 -4.32651
253 1 4.30937 13.6851 10.8938 0.807817 -3.10935 -4.32651
254 1 6.33237 15.7081 10.8938 0.807827 -3.10935 -4.3265
255 1 4.30937 15.7081 12.9168 0.807821 -3.10935 -4.3265
256 1 6.33237 13.6851 12.9168 0.807819 -3.10935 -4.3265
