ITEM: TIMESTEP
80000000
ITEM: NUMBER OF ATOMS
256
ITEM: BOX BOUNDS pp pp pp
0.0000000000000000e+00 1.6184000000000001e+01
0.0000000000000000e+00 1.6184000000000001e+01
0.0000000000000000e+00 1.6184000000000001e+01
ITEM: ATOMS id type x y z vx vy vz
1 1 8.2318 4.45043 3.07125 0.820644 -3.15872 -4.39519
2 1 10.2548 6.47344 3.07125 0.820646 -3.15871 -4.39519
3 1 8.2318 6.47343 5.09425 0.820643 -3.15871 -4.39519
4 1 10.2548 4.45044 5.09425 0.820646 -3.15871 -4.3952
5 1 12.2778 4.45044 3.07125 0.820644 -3.15871 -4.3952
6 1 14.3008 6.47344 3.07125 0.820647 -3.15871 -4.39519
7 1 12.2778 6.47344 5.09425 0.820644 -3.15871 -4.39519
8 1 14.3008 4.45044 5.09425 0.820641 -3.15871 -4.3952
9 1 0.139796 4.45043 3.07125 0.820645 -3.15871 -4.39519
10 1 2.1628 6.47343 3.07125 0.820644 -3.15871 -4.39519
11 1 0.139796 6.47344 5.09425 0.82065 -3.15871 -4.3952
12 1 2.1628 4.45043 5.09425 0.820643 -3.15871 -4.3952
13 1 4.1858 4.45043 3.07125 0.820644 -3.15871 -4.3952
14 1 6.2088 6.47343 3.07125 0.820646 -3.15871 -4.39519
15 1 4.1858 6.47343 5.09425 0.820648 -3.15872 -4.39519
16 1 6.2088 4.45043 5.09425 0.820649 -3.15871 -4.39519
17 1 8.2318 8.49643 3.07125 0.820644 -3.15871 -4.39519
18 1 10.2548 10.5194 3.07125 0.820644 -3.15871 -4.39519
19 1 8.2318 10.5194 5.09425 0.820645 -3.15871 -4.39519
20 1 10.2548 8.49643 5.09425 0.82065 -3.15871 -4.3952
21 1 12.2778 8.49644 3.07125 0.820643 -3.15871 -4.39519
22 1 14.3008 10.5194 3.07125 0.820645 -3.15871 -4.39519
23 1 12.2778 10.5194 5.09425 0.820645 -3.15871 -4.39519
24 1 14.3008 8.49643 5.09425 0.820645 -3.15871 -4.39519
25 1 0.139796 8.49643 3.07125 0.820644 -3.15871 -4.39519
26 1 2.1628 10.5194 3.07125 0.820647 -3.15871 -4.39519
27 1 0.139796 10.5194 5.09425 0.820648 -3.15871 -4.39519
28 1 2.1628 8.49643 5.09425 0.820653 -3.15871 -4.39519
29 1 4.1858 8.49643 3.07125 0.820645 -3.15871 -4.39519
30 1 6.2088 10.5194 3.07125 0.820645 -3.15871 -4.39519
31 1 4.1858 10.5194 5.09425 0.820647 -3.15872 -4.39519
32 1 6.2088 8.49643 5.09425 0.820641 -3.15871 -4.39519
33 1 8.2318 12.5424 3.07125 0.820642 -3.15872 -4.39519
34 1 10.2548 14.5654 3.07125 0.820652 -3.15871 -4.39519
35 1 8.2318 14.5654 5.09425 0.820646 -3.15872 -4.3952
36 1 10.2548 12.5424 5.09425 0.820647 -3.1587 -4.39519
37 1 12.2778 12.5424 3.07125 0.820647 -3.15871 -4.39519
38 1 14.3008 14.5654 3.07125 0.820645 -3.15871 -4.39519
39 1 12.2778 14.5654 5.09425 0.82065 -3.15871 -4.39519
40 1 14.3008 12.5424 5.09425 0.82064 -3.15871 -4.39519
41 1 0.139796 12.5424 3.07125 0.82065 -3.15871 -4.3952
42 1 2.1628 14.5654 3.07125 0.820648 -3.15871 -4.39519
43 1 0.139796 14.5654 5.09425 0.820651 -3.15871 -4.3952
44 1 2.1628 12.5424 5.09425 0.820655 -3.15871 -4.39519
45 1 4.1858 12.5424 3.07125 0.820644 -3.15871 -4.3952
46 1 6.2088 14.5654 3.07125 0.820646 -3.15871 -4.39519
47 1 4.1858 14.5654 5.09425 0.820648 -3.15871 -4.39518
48 1 6.2088 12.5424 5.09425 0.820651 -3.15871 -4.39519
49 1 8.2318 0.404435 3.07125 0.820646 -3.15871 -4.3952
50 1 10.2548 2.42743 3.07125 0.820647 -3.1587 -4.3952
51 1 8.2318 2.42744 5.09425 0.820645 -3.15871 -4.39519
52 1 10.2548 0.404435 5.09425 0.820652 -3.15871 -4.3952
53 1 12.2778 0.404435 3.07125 0.820648 -3.15871 -4.39519
54 1 14.3008 2.42744 3.07125 0.820647 -3.15871 -4.3952
55 1 12.2778 2.42744 5.09425 0.820647 -3.15871 -4.3952
56 1 14.3008 0.404435 5.09425 0.820645 -3.1587 -4.3952
57 1 0.139796 0.404435 3.07125 0.820649 -3.15871 -4.3952
58 1 2.1628 2.42743 3.07125 0.820647 -3.15871 -4.3952
59 1 0.139796 2.42743 5.09425 0.820648 -3.15871 -4.3952
60 1 2.1628 0.404435 5.09425 0.820643 -3.15871 -4.39519
61 1 4.1858 0.404435 3.07125 0.820651 -3.15871 -4.39519
62 1 6.2088 2.42744 3.07125 0.820645 -3.15871 -4.39519
63 1 4.1858 2.42743 5.09425 0.820644 -3.15871 -4.39519
64 1 6.2088 0.404435 5.09425 0.820648 -3.15871 -4.39519
65 1 8.2318 4.45043 7.11725 0.820638 -3.15871 -4.39519
66 1 10.2548 6.47343 7.11725 0.820649 -3.15871 -4.3952
67 1 8.2318 6.47343 9.14025 0.820642 -3.15871 -4.39519
68 1 10.2548 4.45043 9.14025 0.82064 -3.15871 -4.39519
69 1 12.2778 4.45044 7.11725 0.820643 -3.15872 -4.39519
70 1 14.3008 6.47344 7.11725 0.820638 -3.15872 -4.3952
71 1 12.2778 6.47344 9.14025 0.820647 -3.15871 -4.39519
72 1 14.3008 4.45044 9.14025 0.820646 -3.15871 -4.3952
73 1 0.139796 4.45043 7.11725 0.820646 -3.15871 -4.39519
74 1 2.1628 6.47343 7.11725 0.820651 -3.1587 -4.39519
75 1 0.139796 6.47343 9.14025 0.820642 -3.15871 -4.3952
76 1 2.1628 4.45044 9.14025 0.820642 -3.15871 -4.39519
77 1 4.1858 4.45043 7.11725 0.82065 -3.15872 -4.39519
78 1 6.2088 6.47343 7.11725 0.820643 -3.15871 -4.3952
79 1 4.1858 6.47343 9.14025 0.82064 -3.15871 -4.3952
80 1 6.2088 4.45043 9.14025 0.820645 -3.15871 -4.3952
81 1 8.2318 8.49643 7.11725 0.820645 -3.15871 -4.3952
82 1 10.2548 10.5194 7.11725 0.82064 -3.15871 -4.39519
83 1 8.2318 10.5194 9.14025 0.820638 -3.15871 -4.39519
84 1 10.2548 8.49643 9.14025 0.82064 -3.15871 -4.3952
85 1 12.2778 8.49643 7.11725 0.82064 -3.15871 -4.39519
86 1 14.3008 10.5194 7.11725 0.820639 -3.15871 -4.3952
87 1 12.2778 10.5194 9.14025 0.820652 -3.15871 -4.39519
88 1 14.3008 8.49644 9.14025 0.820642 -3.15871 -4.3952
89 1 0.139796 8.49643 7.11725 0.820641 -3.1587 -4.39519
90 1 2.1628 10.5194 7.11725 0.820647 -3.15871 -4.39519
91 1 0.139796 10.5194 9.14025 0.820643 -3.15871 -4.39519
92 1 2.1628 8.49643 9.14025 0.820642 -3.15871 -4.39519
93 1 4.1858 8.49643 7.11725 0.820649 -3.15871 -4.39519
94 1 6.2088 10.5194 7.11725 0.820643 -3.15871 -4.39519
95 1 4.1858 10.5194 9.14025 0.820649 -3.15871 -4.39519
96 1 6.2088 8.49643 9.14025 0.820648 -3.15871 -4.39519
97 1 8.2318 12.5424 7.11725 0.82064 -3.15871 -4.39519
98 1 10.2548 14.5654 7.11725 0.820649 -3.15872 -4.39519
99 1 8.2318 14.5654 9.14025 0.820644 -3.15871 -4.39519
100 1 10.2548 12.5424 9.14025 0.82065 -3.15871 -4.3952
101 1 12.2778 12.5424 7.11725 0.820643 -3.15871 -4.39519
102 1 14.3008 14.5654 7.11725 0.820646 -3.15871 -4.3952
103 1 12.2778 14.5654 9.14025 0.820648 -3.15871 -4.39519
104 1 14.3008 12.5424 9.14025 0.820647 -3.15871 -4.39518
105 1 0.139796 12.5424 7.11725 0.820647 -3.1587 -4.39519
106 1 2.1628 14.5654 7.11725 0.820644 -3.15871 -4.3952
107 1 0.139796 14.5654 9.14025 0.820643 -3.15871 -4.3952
108 1 2.1628 12.5424 9.14025 0.820646 -3.15871 -4.39519
109 1 4.1858 12.5424 7.11725 0.820644 -3.15871 -4.39519
110 1 6.2088 14.5654 7.11725 0.82065 -3.15872 -4.39519
111 1 4.1858 14.5654 9.14025 0.820648 -3.15871 -4.39519
112 1 6.2088 12.5424 9.14025 0.820646 -3.15871 -4.39519
113 1 8.2318 0.404435 7.11725 0.820646 -3.15871 -4.39519
114 1 10.2548 2.42744 7.11725 0.820644 -3.15871 -4.39519
115 1 8.2318 2.42743 9.14025 0.820647 -3.15872 -4.3952
116 1 10.2548 0.404435 9.14025 0.820642 -3.15871 -4.39519
117 1 12.2778 0.404435 7.11725 0.820646 -3.15871 -4.3952
118 1 14.3008 2.42743 7.11725 0.82065 -3.15871 -4.3952
119 1 12.2778 2.42743 9.14025 0.820649 -3.15871 -4.3952
120 1 14.3008 0.404435 9.14025 0.820647 -3.15871 -4.3952
121 1 0.139796 0.404435 7.11725 0.820652 -3.1587 -4.39519
122 1 2.1628 2.42743 7.11725 0.820645 -3.15871 -4.3952
123 1 0.139796 2.42743 9.14025 0.820645 -3.15871 -4.3952
124 1 2.1628 0.404435 9.14025 0.820639 -3.15871 -4.39519
125 1 4.1858 0.404435 7.11725 0.82064 -3.15871 -4.3952
126 1 6.2088 2.42743 7.11725 0.820645 -3.15871 -4.39519
127 1 4.1858 2.42743 9.14025 0.820646 -3.15871 -4.39519
128 1 6.2088 0.404435 9.14025 0.820642 -3.15872 -4.39519
129 1 8.2318 4.45043 11.1632 0.820651 -3.15871 -4.3952
130 1 10.2548 6.47343 11.1632 0.820639 -3.15871 -4.39519
131 1 8.2318 6.47343 13.1862 0.820645 -3.15872 -4.39519
132 1 10.2548 4.45043 13.1862 0.820648 -3.15871 -4.39519
133 1 12.2778 4.45044 11.1632 0.820641 -3.1587 -4.39519
134 1 14.3008 6.47344 11.1632 0.82064 -3.15871 -4.3952
135 1 12.2778 6.47344 13.1862 0.82064 -3.15871 -4.3952
136 1 14.3008 4.45044 13.1862 0.820645 -3.15871 -4.3952
137 1 0.139796 4.45044 11.1632 0.820646 -3.15871 -4.39519
138 1 2.1628 6.47343 11.1632 0.820638 -3.15871 -4.39519
139 1 0.139796 6.47344 13.1862 0.820647 -3.15871 -4.39519
140 1 2.1628 4.45043 13.1862 0.82064 -3.15871 -4.39519
141 1 4.1858 4.45043 11.1632 0.820644 -3.15871 -4.39519
142 1 6.2088 6.47343 11.1632 0.820643 -3.15871 -4.39519
143 1 4.1858 6.47343 13.1862 0.820642 -3.15871 -4.39519
144 1 6.2088 4.45043 13.1862 0.820644 -3.15872 -4.3952
145 1 8.2318 8.49643 11.1632 0.820644 -3.15871 -4.3952
146 1 10.2548 10.5194 11.1632 0.820643 -3.15871 -4.39519
147 1 8.2318 10.5194 13.1862 0.820642 -3.15871 -4.39519
148 1 10.2548 8.49643 13.1862 0.820639 -3.15871 -4.3952
149 1 12.2778 8.49643 11.1632 0.820644 -3.15871 -4.39519
150 1 14.3008 10.5194 11.1632 0.820648 -3.15871 -4.39519
151 1 12.2778 10.5194 13.1862 0.820649 -3.15871 -4.39519
152 1 14.3008 8.49644 13.1862 0.820639 -3.15872 -4.39519
153 1 0.139796 8.49644 11.1632 0.82065 -3.15871 -4.39519
154 1 2.1628 10.5194 11.1632 0.820642 -3.15871 -4.39519
155 1 0.139796 10.5194 13.1862 0.820643 -3.1587 -4.39519
156 1 2.1628 8.49643 13.1862 0.820646 -3.15871 -4.39519
157 1 4.1858 8.49643 11.1632 0.820645 -3.15872 -4.39519
158 1 6.2088 10.5194 11.1632 0.820635 -3.15872 -4.39519
159 1 4.1858 10.5194 13.1862 0.820649 -3.15871 -4.39519
160 1 6.2088 8.49643 13.1862 0.82064 -3.15871 -4.39519
161 1 8.2318 12.5424 11.1632 0.820645 -3.15871 -4.39519
162 1 10.2548 14.5654 11.1632 0.820646 -3.15871 -4.3952
163 1 8.2318 14.5654 13.1862 0.820644 -3.15872 -4.39519
164 1 10.2548 12.5424 13.1862 0.820644 -3.15871 -4.39519
165 1 12.2778 12.5424 11.1632 0.820643 -3.15871 -4.39518
166 1 14.3008 14.5654 11.1632 0.820642 -3.15871 -4.39519
167 1 12.2778 14.5654 13.1862 0.820645 -3.15871 -4.39519
168 1 14.3008 12.5424 13.1862 0.820641 -3.15871 -4.39519
169 1 0.139796 12.5424 11.1632 0.820644 -3.15871 -4.39519
170 1 2.1628 14.5654 11.1632 0.820645 -3.15871 -4.39519
171 1 0.139796 14.5654 13.1862 0.82064 -3.15871 -4.39519
172 1 2.1628 12.5424 13.1862 0.820645 -3.15871 -4.39519
173 1 4.1858 12.5424 11.1632 0.820643 -3.15871 -4.39519
174 1 6.2088 14.5654 11.1632 0.820646 -3.15871 -4.39519
175 1 4.1858 14.5654 13.1862 0.820647 -3.15872 -4.39519
176 1 6.2088 12.5424 13.1862 0.820647 -3.15871 -4.39519
177 1 8.2318 0.404435 11.1632 0.820647 -3.15871 -4.3952
178 1 10.2548 2.42743 11.1632 0.820642 -3.15871 -4.39519
179 1 8.2318 2.42743 13.1862 0.820645 -3.15871 -4.39519
180 1 10.2548 0.404435 13.1862 0.820643 -3.15871 -4.39519
181 1 12.2778 0.404435 11.1632 0.820648 -3.1587 -4.3952
182 1 14.3008 2.42743 11.1632 0.820645 -3.15871 -4.39519
183 1 12.2778 2.42743 13.1862 0.820637 -3.15871 -4.39519
184 1 14.3008 0.404435 13.1862 0.820644 -3.15871 -4.3952
185 1 0.139796 0.404435 11.1632 0.820645 -3.15871 -4.3952
186 1 2.1628 2.42744 11.1632 0.820642 -3.15872 -4.3952
187 1 0.139796 2.42743 13.1862 0.820646 -3.1587 -4.3952
188 1 2.1628 0.404435 13.1862 0.820648 -3.15871 -4.39519
189 1 4.1858 0.404435 11.1632 0.820643 -3.15871 -4.39519
190 1 6.2088 2.42743 11.1632 0.820644 -3.15871 -4.3952
191 1 4.1858 2.42743 13.1862 0.820644 -3.15871 -4.39519
192 1 6.2088 0.404435 13.1862 0.820644 -3.15871 -4.39519
193 1 8.2318 4.45043 15.2092 0.820647 -3.15871 -4.3952
194 1 10.2548 6.47343 15.2092 0.820644 -3.15871 -4.39519
195 1 8.2318 6.47343 1.04825 0.820649 -3.15871 -4.39519
196 1 10.2548 4.45043 1.04825 0.820647 -3.15871 -4.3952
197 1 12.2778 4.45043 15.2092 0.820649 -3.15872 -4.39519
198 1 14.3008 6.47344 15.2092 0.820643 -3.15871 -4.39519
199 1 12.2778 6.47344 1.04825 0.820648 -3.15871 -4.3952
200 1 14.3008 4.45043 1.04825 0.820647 -3.15871 -4.3952
201 1 0.139796 4.45044 15.2092 0.820644 -3.15871 -4.3952
202 1 2.1628 6.47343 15.2092 0.820638 -3.15871 -4.3952
203 1 0.139796 6.47344 1.04825 0.820642 -3.15871 -4.3952
204 1 2.1628 4.45043 1.04825 0.820644 -3.15871 -4.39519
205 1 4.1858 4.45043 15.2092 0.820645 -3.15871 -4.39519
206 1 6.2088 6.47343 15.2092 0.820641 -3.15872 -4.3952
207 1 4.1858 6.47343 1.04825 0.820641 -3.15871 -4.3952
208 1 6.2088 4.45043 1.04825 0.820644 -3.15871 -4.3952
209 1 8.2318 8.49643 15.2092 0.820634 -3.15871 -4.3952
210 1 10.2548 10.5194 15.2092 0.820645 -3.15872 -4.39519
211 1 8.2318 10.5194 1.04825 0.820646 -3.15871 -4.39519
212 1 10.2548 8.49643 1.04825 0.820642 -3.15871 -4.39519
213 1 12.2778 8.49644 15.2092 0.820645 -3.15871 -4.3952
214 1 14.3008 10.5194 15.2092 0.820645 -3.15871 -4.3952
215 1 12.2778 10.5194 1.04825 0.820648 -3.15871 -4.39519
216 1 14.3008 8.49644 1.04825 0.820649 -3.15871 -4.3952
217 1 0.139796 8.49644 15.2092 0.820648 -3.15871 -4.39519
218 1 2.1628 10.5194 15.2092 0.82065 -3.15871 -4.39518
219 1 0.139796 10.5194 1.04825 0.820644 -3.15871 -4.39519
220 1 2.1628 8.49643 1.04825 0.820646 -3.15871 -4.39519
221 1 4.1858 8.49643 15.2092 0.820648 -3.15871 -4.39519
222 1 6.2088 10.5194 15.2092 0.820643 -3.15871 -4.39519
223 1 4.1858 10.5194 1.04825 0.820639 -3.1587 -4.39519
224 1 6.2088 8.49643 1.04825 0.820649 -3.15872 -4.39519
225 1 8.2318 12.5424 15.2092 0.820644 -3.15871 -4.3952
226 1 10.2548 14.5654 15.2092 0.820647 -3.15871 -4.39519
227 1 8.2318 14.5654 1.04825 0.820646 -3.15871 -4.39519
228 1 10.2548 12.5424 1.04825 0.820649 -3.15871 -4.39519
229 1 12.2778 12.5424 15.2092 0.82065 -3.15871 -4.39519
230 1 14.3008 14.5654 15.2092 0.820646 -3.15871 -4.3952
231 1 12.2778 14.5654 1.04825 0.82065 -3.15871 -4.3952
232 1 14.3008 12.5424 1.04825 0.820647 -3.15871 -4.39519
233 1 0.139796 12.5424 15.2092 0.820644 -3.15871 -4.39519
234 1 2.1628 14.5654 15.2092 0.820651 -3.15871 -4.39519
235 1 0.139796 14.5654 1.04825 0.820653 -3.15871 -4.3952
236 1 2.1628 12.5424 1.04825 0.820642 -3.15872 -4.39519
237 1 4.1858 12.5424 15.2092 0.820647 -3.15871 -4.39519
238 1 6.2088 14.5654 15.2092 0.820649 -3.15871 -4.39519
239 1 4.1858 14.5654 1.04825 0.82064 -3.15872 -4.39519
240 1 6.2088 12.5424 1.04825 0.820652 -3.15871 -4.39519
241 1 8.2318 0.404435 15.2092 0.820649 -3.15871 -4.3952
242 1 10.2548 2.42743 15.2092 0.820641 -3.15871 -4.39519
243 1 8.2318 2.42743 1.04825 0.820639 -3.15871 -4.39519
244 1 10.2548 0.404435 1.04825 0.820655 -3.15872 -4.39519
245 1 12.2778 0.404435 15.2092 0.820643 -3.15871 -4.39519
246 1 14.3008 2.42743 15.2092 0.820643 -3.15871 -4.3952
247 1 12.2778 2.42743 1.04825 0.820642 -3.15871 -4.3952
248 1 14.3008 0.404435 1.04825 0.820642 -3.15871 -4.39519
249 1 0.139796 0.404435 15.2092 0.82064 -3.15871 -4.3952
250 1 2.1628 2.42743 15.2092 0.820649 -3.15871 -4.39519
251 1 0.139796 2.42744 1.04825 0.820645 -3.15871 -4.39519
252 1 2.1628 0.404435 1.04825 0.820646 -3.15872 -4.39519
253 1 4.1858 0.404435 15.2092 0.820646 -3.15871 -4.39519
254 1 6.2088 2.42743 15.2092 0.82065 -3.15871 -4.39519
255 1 4.1858 2.42743 1.04825 0.820638 -3.15871 -4.3952
256 1 6.2088 0.404435 1.04825 0.820651 -3.15871 -4.39519
