ITEM: TIMESTEP
160000000
ITEM: NUMBER OF ATOMS
256
ITEM: BOX BOUNDS pp pp pp
0.0000000000000000e+00 1.6184000000000001e+01
0.0000000000000000e+00 1.6184000000000001e+01
0.0000000000000000e+00 1.6184000000000001e+01
ITEM: ATOMS id type x y z vx vy vz
1 1 4.36265 15.4381 9.59258 0.81518 -3.13767 -4.36592
2 1 6.38565 1.27711 9.59258 0.815178 -3.13767 -4.36592
3 1 4.36265 1.27711 11.6156 0.815177 -3.13767 -4.36592
4 1 6.38565 15.4381 11.6156 0.81518 -3.13767 -4.36592
5 1 8.40865 15.4381 9.59258 0.815179 -3.13767 -4.36592
6 1 10.4317 1.27711 9.59258 0.815184 -3.13768 -4.36591
7 1 8.40865 1.27711 11.6156 0.815176 -3.13768 -4.36592
8 1 10.4317 15.4381 11.6156 0.815175 -3.13767 -4.36592
9 1 12.4547 15.4381 9.59258 0.815176 -3.13768 -4.36592
10 1 14.4777 1.27711 9.59258 0.815176 -3.13767 -4.36593
11 1 12.4547 1.27711 11.6156 0.815175 -3.13768 -4.36592
12 1 14.4777 15.4381 11.6156 0.815182 -3.13767 -4.36592
13 1 0.316655 15.4381 9.59258 0.815175 -3.13767 -4.36592
14 1 2.33965 1.27711 9.59258 0.815174 -3.13768 -4.36592
15 1 0.316655 1.27711 11.6156 0.815175 -3.13767 -4.36593
16 1 2.33965 15.4381 11.6156 0.815177 -3.13768 -4.36592
17 1 4.36265 3.30011 9.59258 0.815185 -3.13767 -4.36592
18 1 6.38565 5.32311 9.59258 0.815185 -3.13767 -4.36592
19 1 4.36265 5.32311 11.6156 0.815178 -3.13767 -4.36592
20 1 6.38565 3.30011 11.6156 0.815179 -3.13768 -4.36592
21 1 8.40865 3.30011 9.59258 0.815179 -3.13768 -4.36592
22 1 10.4317 5.32311 9.59258 0.81518 -3.13768 -4.36592
23 1 8.40865 5.32311 11.6156 0.815181 -3.13768 -4.36592
24 1 10.4317 3.30011 11.6156 0.815173 -3.13768 -4.36592
25 1 12.4547 3.30011 9.59258 0.815181 -3.13767 -4.36593
26 1 14.4777 5.32311 9.59258 0.815175 -3.13768 -4.36592
27 1 12.4547 5.32311 11.6156 0.815179 -3.13768 -4.36592
28 1 14.4777 3.30011 11.6156 0.815182 -3.13768 -4.36592
29 1 0.316655 3.30011 9.59258 0.815179 -3.13767 -4.36592
30 1 2.33965 5.32311 9.59258 0.815175 -3.13767 -4.36592
31 1 0.316655 5.32311 11.6156 0.815181 -3.13767 -4.36592
32 1 2.33965 3.30011 11.6156 0.815178 -3.13767 -4.36592
33 1 4.36265 7.34611 9.59258 0.815183 -3.13767 -4.36593
34 1 6.38565 9.36911 9.59258 0.815176 -3.13768 -4.36593
35 1 4.36265 9.36911 11.6156 0.815178 -3.13767 -4.36593
36 1 6.38565 7.34611 11.6156 0.815179 -3.13768 -4.36593
37 1 8.40865 7.34611 9.59258 0.815181 -3.13768 -4.36592
38 1 10.4317 9.36911 9.59258 0.815173 -3.13767 -4.36592
39 1 8.40865 9.36911 11.6156 0.815177 -3.13767 -4.36593
40 1 10.4317 7.34611 11.6156 0.81518 -3.13768 -4.36592
41 1 12.4547 7.34611 9.59258 0.815174 -3.13767 -4.36592
42 1 14.4777 9.36911 9.59258 0.815179 -3.13767 -4.36592
43 1 12.4547 9.36911 11.6156 0.815179 -3.13767 -4.36591
44 1 14.4777 7.34611 11.6156 0.815175 -3.13767 -4.36592
45 1 0.316655 7.34611 9.59258 0.815182 -3.13767 -4.36592
46 1 2.33965 9.36911 9.59258 0.81518 -3.13767 -4.36593
47 1 0.316655 9.36911 11.6156 0.815179 -3.13767 -4.36592
48 1 2.33965 7.34611 11.6156 0.815179 -3.13768 -4.36592
49 1 4.36265 11.3921 9.59258 0.815181 -3.13767 -4.36592
50 1 6.38565 13.4151 9.59258 0.815177 -3.13767 -4.36592
51 1 4.36265 13.4151 11.6156 0.815181 -3.13767 -4.36592
52 1 6.38565 11.3921 11.6156 0.815179 -3.13767 -4.36592
53 1 8.40865 11.3921 9.59258 0.815175 -3.13768 -4.36592
54 1 10.4317 13.4151 9.59258 0.815177 -3.13767 -4.36591
55 1 8.40865 13.4151 11.6156 0.815181 -3.13767 -4.36592
56 1 10.4317 11.3921 11.6156 0.815177 -3.13768 -4.36592
57 1 12.4547 11.3921 9.59258 0.815185 -3.13767 -4.36592
58 1 14.4777 13.4151 9.59258 0.815179 -3.13768 -4.36592
59 1 12.4547 13.4151 11.6156 0.815179 -3.13768 -4.36592
60 1 14.4777 11.3921 11.6156 0.815175 -3.13768 -4.36592
61 1 0.316655 11.3921 9.59258 0.81518 -3.13767 -4.36592
62 1 2.33965 13.4151 9.59258 0.815182 -3.13768 -4.36592
63 1 0.316655 13.4151 11.6156 0.815177 -3.13767 -4.36592
64 1 2.33965 11.3921 11.6156 0.815181 -3.13767 -4.36592
65 1 4.36265 15.4381 13.6386 0.815183 -3.13767 -4.36592
66 1 6.38565 1.27711 13.6386 0.815178 -3.13767 -4.36592
67 1 4.36265 1.27711 15.6616 0.815184 -3.13768 -4.36592
68 1 6.38565 15.4381 15.6616 0.815176 -3.13768 -4.36592
69 1 8.40865 15.4381 13.6386 0.81518 -3.13767 -4.36592
70 1 10.4317 1.27711 13.6386 0.815185 -3.13767 -4.36592
71 1 8.40865 1.27711 15.6616 0.815181 -3.13767 -4.36592
72 1 10.4317 15.4381 15.6616 0.815185 -3.13768 -4.36592
73 1 12.4547 15.4381 13.6386 0.81518 -3.13767 -4.36592
74 1 14.4777 1.27711 13.6386 0.815182 -3.13768 -4.36592
75 1 12.4547 1.27711 15.6616 0.81518 -3.13767 -4.36592
76 1 14.4777 15.4381 15.6616 0.81518 -3.13768 -4.36592
77 1 0.316655 15.4381 13.6386 0.815183 -3.13768 -4.36592
78 1 2.33965 1.27711 13.6386 0.815178 -3.13767 -4.36592
79 1 0.316655 1.27711 15.6616 0.815182 -3.13767 -4.36592
80 1 2.33965 15.4381 15.6616 0.815179 -3.13767 -4.36592
81 1 4.36265 3.30011 13.6386 0.815178 -3.13767 -4.36592
82 1 6.38565 5.32311 13.6386 0.815185 -3.13768 -4.36592
83 1 4.36265 5.32311 15.6616 0.815181 -3.13767 -4.36593
84 1 6.38565 3.30011 15.6616 0.815182 -3.13768 -4.36592
85 1 8.40865 3.30011 13.6386 0.815178 -3.13768 -4.36592
86 1 10.4317 5.32311 13.6386 0.815184 -3.13768 -4.36592
87 1 8.40865 5.32311 15.6616 0.815174 -3.13767 -4.36592
88 1 10.4317 3.30011 15.6616 0.815183 -3.13767 -4.36592
89 1 12.4547 3.30011 13.6386 0.815184 -3.13767 -4.36592
90 1 14.4777 5.32311 13.6386 0.815181 -3.13767 -4.36592
91 1 12.4547 5.32311 15.6616 0.815178 -3.13767 -4.36593
92 1 14.4777 3.30011 15.6616 0.815178 -3.13768 -4.36592
93 1 0.316655 3.30011 13.6386 0.815183 -3.13767 -4.36592
94 1 2.33965 5.32311 13.6386 0.815182 -3.13767 -4.36592
95 1 0.316655 5.32311 15.6616 0.815173 -3.13767 -4.36592
96 1 2.33965 3.30011 15.6616 0.815183 -3.13767 -4.36593
97 1 4.36265 7.34611 13.6386 0.815178 -3.13767 -4.36592
98 1 6.38565 9.36911 13.6386 0.815176 -3.13767 -4.36593
99 1 4.36265 9.36911 15.6616 0.815181 -3.13767 -4.36592
100 1 6.38565 7.34611 15.6616 0.815181 -3.13767 -4.36592
101 1 8.40865 7.34611 13.6386 0.815181 -3.13767 -4.36592
102 1 10.4317 9.36911 13.6386 0.815179 -3.13768 -4.36592
103 1 8.40865 9.36911 15.6616 0.815177 -3.13767 -4.36593
104 1 10.4317 7.34611 15.6616 0.815181 -3.13768 -4.36592
105 1 12.4547 7.34611 13.6386 0.815174 -3.13768 -4.36592
106 1 14.4777 9.36911 13.6386 0.815178 -3.13767 -4.36592
107 1 12.4547 9.36911 15.6616 0.815181 -3.13767 -4.36591
108 1 14.4777 7.34611 15.6616 0.815174 -3.13768 -4.36592
109 1 0.316655 7.34611 13.6386 0.815187 -3.13767 -4.36592
110 1 2.33965 9.36911 13.6386 0.815177 -3.13768 -4.36592
111 1 0.316655 9.36911 15.6616 0.815179 -3.13767 -4.36593
112 1 2.33965 7.34611 15.6616 0.815177 -3.13767 -4.36593
113 1 4.36265 11.3921 13.6386 0.815175 -3.13768 -4.36592
114 1 6.38565 13.4151 13.6386 0.815175 -3.13767 -4.36592
115 1 4.36265 13.4151 15.6616 0.815178 -3.13766 -4.36592
116 1 6.38565 11.3921 15.6616 0.815183 -3.13768 -4.36592
117 1 8.40865 11.3921 13.6386 0.815179 -3.13767 -4.36592
118 1 10.4317 13.4151 13.6386 0.815177 -3.13768 -4.36592
119 1 8.40865 13.4151 15.6616 0.815176 -3.13768 -4.36592
120 1 10.4317 11.3921 15.6616 0.81518 -3.13767 -4.36592
121 1 12.4547 11.3921 13.6386 0.815183 -3.13767 -4.36592
122 1 14.4777 13.4151 13.6386 0.815186 -3.13768 -4.36592
123 1 12.4547 13.4151 15.6616 0.815182 -3.13767 -4.36592
124 1 14.4777 11.3921 15.6616 0.815187 -3.13767 -4.36593
125 1 0.316655 11.3921 13.6386 0.815186 -3.13768 -4.36592
126 1 2.33965 13.4151 13.6386 0.815176 -3.13768 -4.36592
127 1 0.316655 13.4151 15.6616 0.815179 -3.13768 -4.36592
128 1 2.33965 11.3921 15.6616 0.815179 -3.13767 -4.36592
129 1 4.36265 15.4381 1.50058 0.815179 -3.13768 -4.36592
130 1 6.38565 1.27711 1.50058 0.815179 -3.13767 -4.36592
131 1 4.36265 1.27711 3.52358 0.815188 -3.13768 -4.36592
132 1 6.38565 15.4381 3.52358 0.81518 -3.13767 -4.36592
133 1 8.40865 15.4381 1.50058 0.815183 -3.13767 -4.36592
134 1 10.4317 1.27711 1.50058 0.815185 -3.13768 -4.36592
135 1 8.40865 1.27711 3.52358 0.815182 -3.13768 -4.36592
136 1 10.4317 15.4381 3.52358 0.815183 -3.13767 -4.36592
137 1 12.4547 15.4381 1.50058 0.81518 -3.13767 -4.36593
138 1 14.4777 1.27711 1.50058 0.815175 -3.13767 -4.36593
139 1 12.4547 1.27711 3.52358 0.815175 -3.13767 -4.36592
140 1 14.4777 15.4381 3.52358 0.815183 -3.13766 -4.36592
141 1 0.316655 15.4381 1.50058 0.815181 -3.13767 -4.36592
142 1 2.33965 1.27711 1.50058 0.815181 -3.13768 -4.36592
143 1 0.316655 1.27711 3.52358 0.815185 -3.13767 -4.36592
144 1 2.33965 15.4381 3.52358 0.81518 -3.13767 -4.36592
145 1 4.36265 3.30011 1.50058 0.815182 -3.13768 -4.36592
146 1 6.38565 5.32311 1.50058 0.815181 -3.13768 -4.36593
147 1 4.36265 5.32311 3.52358 0.815182 -3.13767 -4.36592
148 1 6.38565 3.30011 3.52358 0.815179 -3.13767 -4.36592
149 1 8.40865 3.30011 1.50058 0.815179 -3.13767 -4.36592
150 1 10.4317 5.32311 1.50058 0.815181 -3.13767 -4.36593
151 1 8.40865 5.32311 3.52358 0.815177 -3.13767 -4.36592
152 1 10.4317 3.30011 3.52358 0.815178 -3.13768 -4.36592
153 1 12.4547 3.30011 1.50058 0.815178 -3.13768 -4.36592
154 1 14.4777 5.32311 1.50058 0.815178 -3.13767 -4.36592
155 1 12.4547 5.32311 3.52358 0.815175 -3.13767 -4.36593
156 1 14.4777 3.30011 3.52358 0.815186 -3.13767 -4.36592
157 1 0.316655 3.30011 1.50058 0.815181 -3.13767 -4.36593
158 1 2.33965 5.32311 1.50058 0.81518 -3.13767 -4.36592
159 1 0.316655 5.32311 3.52358 0.815184 -3.13767 -4.36592
160 1 2.33965 3.30011 3.52358 0.815182 -3.13767 -4.36593
161 1 4.36265 7.34611 1.50058 0.815177 -3.13768 -4.36592
162 1 6.38565 9.36911 1.50058 0.815176 -3.13767 -4.36592
163 1 4.36265 9.36911 3.52358 0.815181 -3.13767 -4.36592
164 1 6.38565 7.34611 3.52358 0.815177 -3.13767 -4.36592
165 1 8.40865 7.34611 1.50058 0.815182 -3.13767 -4.36592
166 1 10.4317 9.36911 1.50058 0.81518 -3.13767 -4.36592
167 1 8.40865 9.36911 3.52358 0.815175 -3.13767 -4.36592
168 1 10.4317 7.34611 3.52358 0.815179 -3.13768 -4.36592
169 1 12.4547 7.34611 1.50058 0.815177 -3.13767 -4.36592
170 1 14.4777 9.36911 1.50058 0.815187 -3.13767 -4.36593
171 1 12.4547 9.36911 3.52358 0.81518 -3.13768 -4.36593
172 1 14.4777 7.34611 3.52358 0.815184 -3.13767 -4.36592
173 1 0.316655 7.34611 1.50058 0.815182 -3.13767 -4.36592
174 1 2.33965 9.36911 1.50058 0.815174 -3.13767 -4.36592
175 1 0.316655 9.36911 3.52358 0.815174 -3.13767 -4.36592
176 1 2.33965 7.34611 3.52358 0.815181 -3.13767 -4.36592
177 1 4.36265 11.3921 1.50058 0.815179 -3.13767 -4.36592
178 1 6.38565 13.4151 1.50058 0.815176 -3.13767 -4.36592
179 1 4.36265 13.4151 3.52358 0.815177 -3.13768 -4.36593
180 1 6.38565 11.3921 3.52358 0.815178 -3.13768 -4.36592
181 1 8.40865 11.3921 1.50058 0.815178 -3.13768 -4.36592
182 1 10.4317 13.4151 1.50058 0.815184 -3.13767 -4.36592
183 1 8.40865 13.4151 3.52358 0.815181 -3.13768 -4.36592
184 1 10.4317 11.3921 3.52358 0.815188 -3.13767 -4.36592
185 1 12.4547 11.3921 1.50058 0.815179 -3.13768 -4.36593
186 1 14.4777 13.4151 1.50058 0.815182 -3.13767 -4.36592
187 1 12.4547 13.4151 3.52358 0.815184 -3.13767 -4.36592
188 1 14.4777 11.3921 3.52358 0.815182 -3.13767 -4.36592
189 1 0.316655 11.3921 1.50058 0.815176 -3.13767 -4.36592
190 1 2.33965 13.4151 1.50058 0.815184 -3.13767 -4.36592
191 1 0.316655 13.4151 3.52358 0.815185 -3.13767 -4.36592
192 1 2.33965 11.3921 3.52358 0.815174 -3.13767 -4.36592
193 1 4.36265 15.4381 5.54658 0.815177 -3.13767 -4.36592
194 1 6.38565 1.27711 5.54658 0.815184 -3.13768 -4.36592
195 1 4.36265 1.27711 7.56958 0.815181 -3.13768 -4.36592
196 1 6.38565 15.4381 7.56958 0.815184 -3.13768 -4.36592
197 1 8.40866 15.4381 5.54658 0.815174 -3.13767 -4.36592
198 1 10.4317 1.27711 5.54658 0.81518 -3.13768 -4.36592
199 1 8.40865 1.27711 7.56958 0.815179 -3.13767 -4.36592
200 1 10.4317 15.4381 7.56958 0.815185 -3.13768 -4.36592
201 1 12.4547 15.4381 5.54658 0.81518 -3.13767 -4.36591
202 1 14.4777 1.27711 5.54658 0.815184 -3.13768 -4.36592
203 1 12.4547 1.27711 7.56958 0.815177 -3.13768 -4.36592
204 1 14.4777 15.4381 7.56958 0.815176 -3.13767 -4.36592
205 1 0.316655 15.4381 5.54658 0.815175 -3.13767 -4.36592
206 1 2.33965 1.27711 5.54658 0.815181 -3.13768 -4.36592
207 1 0.316655 1.27711 7.56958 0.815181 -3.13767 -4.36592
208 1 2.33965 15.4381 7.56958 0.815182 -3.13768 -4.36592
209 1 4.36265 3.30011 5.54658 0.815179 -3.13767 -4.36592
210 1 6.38565 5.32311 5.54658 0.81518 -3.13767 -4.36592
211 1 4.36265 5.32311 7.56958 0.815182 -3.13767 -4.36592
212 1 6.38565 3.30011 7.56958 0.815176 -3.13767 -4.36592
213 1 8.40865 3.30011 5.54658 0.815186 -3.13767 -4.36593
214 1 10.4317 5.32311 5.54658 0.815181 -3.13768 -4.36592
215 1 8.40865 5.32311 7.56958 0.815185 -3.13767 -4.36592
216 1 10.4317 3.30011 7.56958 0.815179 -3.13768 -4.36592
217 1 12.4547 3.30011 5.54658 0.815178 -3.13767 -4.36592
218 1 14.4777 5.32311 5.54658 0.815178 -3.13767 -4.36592
219 1 12.4547 5.32311 7.56958 0.815176 -3.13768 -4.36592
220 1 14.4777 3.30011 7.56958 0.815177 -3.13767 -4.36592
221 1 0.316654 3.30011 5.54658 0.815182 -3.13768 -4.36593
222 1 2.33965 5.32311 5.54658 0.815173 -3.13767 -4.36593
223 1 0.316655 5.32311 7.56958 0.815182 -3.13767 -4.36592
224 1 2.33965 3.30011 7.56958 0.815176 -3.13767 -4.36592
225 1 4.36265 7.34611 5.54658 0.815183 -3.13767 -4.36592
226 1 6.38565 9.36911 5.54658 0.815172 -3.13768 -4.36592
227 1 4.36265 9.36911 7.56958 0.815177 -3.13767 -4.36593
228 1 6.38565 7.34611 7.56958 0.815184 -3.13768 -4.36592
229 1 8.40865 7.34611 5.54658 0.815182 -3.13768 -4.36592
230 1 10.4317 9.36911 5.54658 0.815186 -3.13767 -4.36592
231 1 8.40865 9.36911 7.56958 0.815185 -3.13768 -4.36592
232 1 10.4317 7.34611 7.56958 0.815177 -3.13767 -4.36593
233 1 12.4547 7.34611 5.54658 0.815179 -3.13768 -4.36592
234 1 14.4777 9.36911 5.54658 0.815183 -3.13767 -4.36591
235 1 12.4547 9.36911 7.56958 0.815174 -3.13767 -4.36592
236 1 14.4777 7.34611 7.56958 0.815179 -3.13768 -4.36592
237 1 0.316655 7.34611 5.54658 0.815174 -3.13768 -4.36592
238 1 2.33965 9.36911 5.54658 0.815182 -3.13768 -4.36592
239 1 0.316655 9.36911 7.56958 0.815176 -3.13768 -4.36592
240 1 2.33965 7.34611 7.56958 0.815178 -3.13767 -4.36593
241 1 4.36265 11.3921 5.54658 0.815177 -3.13767 -4.36591
242 1 6.38565 13.4151 5.54658 0.815178 -3.13767 -4.36592
243 1 4.36265 13.4151 7.56958 0.81518 -3.13768 -4.36593
244 1 6.38565 11.3921 7.56958 0.815178 -3.13767 -4.36593
245 1 8.40865 11.3921 5.54658 0.815177 -3.13768 -4.36592
246 1 10.4317 13.4151 5.54658 0.81518 -3.13767 -4.36592
247 1 8.40865 13.4151 7.56958 0.815184 -3.13768 -4.36592
248 1 10.4317 11.3921 7.56958 0.815184 -3.13768 -4.36592
249 1 12.4547 11.3921 5.54658 0.81518 -3.13766 -4.36592
250 1 14.4777 13.4151 5.54658 0.815183 -3.13767 -4.36591
251 1 12.4547 13.4151 7.56958 0.815183 -3.13768 -4.36592
252 1 14.4777 11.3921 7.56958 0.815175 -3.13768 -4.36592
253 1 0.316655 11.3921 5.54658 0.815179 -3.13767 -4.36592
254 1 2.33965 13.4151 5.54658 0.815175 -3.13767 -4.36592
255 1 0.316655 13.4151 7.56958 0.815181 -3.13768 -4.36592
256 1 2.33965 11.3921 7.56958 0.81518 -3.13768 -4.36592
