ITEM: TIMESTEP
20000000
ITEM: NUMBER OF ATOMS
256
ITEM: BOX BOUNDS pp pp pp
0.0000000000000000e+00 1.6184000000000001e+01
0.0000000000000000e+00 1.6184000000000001e+01
0.0000000000000000e+00 1.6184000000000001e+01
ITEM: ATOMS id type x y z vx vy vz
1 1 1.89113 4.5793 0.494236 0.769516 -2.96191 -4.12134
2 1 3.91413 6.6023 0.494236 0.769518 -2.96191 -4.12135
3 1 1.89113 6.6023 2.51724 0.76951 -2.96191 -4.12135
4 1 3.91413 4.5793 2.51724 0.769517 -2.96191 -4.12134
5 1 5.93713 4.5793 0.494236 0.76952 -2.9619 -4.12135
6 1 7.96013 6.6023 0.494236 0.769518 -2.96191 -4.12135
7 1 5.93713 6.6023 2.51724 0.769516 -2.96191 -4.12136
8 1 7.96013 4.5793 2.51724 0.769514 -2.96191 -4.12135
9 1 9.98313 4.5793 0.494236 0.769513 -2.9619 -4.12135
10 1 12.0061 6.6023 0.494236 0.769512 -2.96191 -4.12134
11 1 9.98313 6.6023 2.51724 0.769518 -2.96191 -4.12135
12 1 12.0061 4.5793 2.51724 0.769517 -2.9619 -4.12135
13 1 14.0291 4.5793 0.494236 0.769507 -2.96191 -4.12135
14 1 16.0521 6.6023 0.494236 0.769519 -2.96191 -4.12135
15 1 14.0291 6.6023 2.51724 0.769521 -2.9619 -4.12135
16 1 16.0521 4.5793 2.51724 0.769518 -2.96191 -4.12134
17 1 1.89113 8.6253 0.494236 0.769515 -2.96191 -4.12134
18 1 3.91413 10.6483 0.494236 0.769512 -2.9619 -4.12135
19 1 1.89113 10.6483 2.51724 0.769507 -2.96191 -4.12135
20 1 3.91413 8.6253 2.51724 0.769519 -2.96191 -4.12134
21 1 5.93713 8.6253 0.494236 0.769515 -2.9619 -4.12135
22 1 7.96013 10.6483 0.494236 0.769516 -2.96191 -4.12135
23 1 5.93713 10.6483 2.51724 0.769514 -2.9619 -4.12134
24 1 7.96013 8.6253 2.51724 0.769517 -2.9619 -4.12136
25 1 9.98313 8.6253 0.494236 0.769513 -2.96191 -4.12135
26 1 12.0061 10.6483 0.494236 0.769515 -2.96191 -4.12135
27 1 9.98313 10.6483 2.51724 0.769513 -2.9619 -4.12135
28 1 12.0061 8.6253 2.51724 0.769522 -2.96191 -4.12135
29 1 14.0291 8.6253 0.494236 0.769512 -2.96191 -4.12135
30 1 16.0521 10.6483 0.494236 0.769518 -2.96191 -4.12135
31 1 14.0291 10.6483 2.51724 0.769514 -2.96191 -4.12135
32 1 16.0521 8.6253 2.51724 0.769514 -2.96191 -4.12134
33 1 1.89113 12.6713 0.494236 0.769516 -2.96191 -4.12135
34 1 3.91413 14.6943 0.494236 0.769518 -2.96191 -4.12135
35 1 1.89113 14.6943 2.51724 0.769513 -2.9619 -4.12135
36 1 3.91413 12.6713 2.51724 0.769512 -2.96191 -4.12135
37 1 5.93713 12.6713 0.494236 0.769514 -2.9619 -4.12134
38 1 7.96013 14.6943 0.494236 0.769514 -2.96191 -4.12135
39 1 5.93713 14.6943 2.51724 0.76952 -2.96191 -4.12135
40 1 7.96013 12.6713 2.51724 0.769518 -2.9619 -4.12135
41 1 9.98313 12.6713 0.494236 0.769513 -2.96191 -4.12135
42 1 12.0061 14.6943 0.494236 0.769509 -2.96191 -4.12135
43 1 9.98313 14.6943 2.51724 0.769519 -2.9619 -4.12135
44 1 12.0061 12.6713 2.51724 0.769513 -2.96191 -4.12135
45 1 14.0291 12.6713 0.494236 0.769514 -2.96191 -4.12135
46 1 16.0521 14.6943 0.494236 0.769521 -2.96191 -4.12134
47 1 14.0291 14.6943 2.51724 0.769515 -2.9619 -4.12135
48 1 16.0521 12.6713 2.51724 0.769512 -2.96191 -4.12134
49 1 1.89113 0.533302 0.494236 0.769513 -2.96191 -4.12135
50 1 3.91413 2.5563 0.494236 0.769515 -2.9619 -4.12135
51 1 1.89113 2.5563 2.51724 0.769514 -2.9619 -4.12135
52 1 3.91413 0.533302 2.51724 0.769516 -2.96191 -4.12135
53 1 5.93713 0.533302 0.494236 0.769511 -2.9619 -4.12135
54 1 7.96013 2.5563 0.494236 0.769513 -2.96191 -4.12135
55 1 5.93713 2.5563 2.51724 0.769519 -2.9619 -4.12135
56 1 7.96013 0.533301 2.51724 0.769511 -2.9619 -4.12135
57 1 9.98313 0.533302 0.494236 0.769519 -2.96191 -4.12135
58 1 12.0061 2.5563 0.494236 0.769514 -2.96191 -4.12135
59 1 9.98313 2.5563 2.51724 0.769516 -2.9619 -4.12135
60 1 12.0061 0.533302 2.51724 0.76952 -2.96191 -4.12135
61 1 14.0291 0.533302 0.494236 0.769515 -2.96191 -4.12135
62 1 16.0521 2.5563 0.494236 0.769516 -2.96191 -4.12135
63 1 14.0291 2.5563 2.51724 0.769513 -2.96191 -4.12134
64 1 16.0521 0.533302 2.51724 0.769519 -2.96191 -4.12135
65 1 1.89113 4.5793 4.54024 0.769511 -2.96191 -4.12135
66 1 3.91413 6.6023 4.54024 0.769515 -2.96191 -4.12135
67 1 1.89113 6.6023 6.56324 0.769511 -2.96191 -4.12135
68 1 3.91413 4.5793 6.56324 0.769517 -2.9619 -4.12135
69 1 5.93713 4.5793 4.54024 0.769513 -2.96191 -4.12135
70 1 7.96013 6.6023 4.54024 0.769516 -2.9619 -4.12135
71 1 5.93713 6.6023 6.56324 0.769514 -2.96191 -4.12135
72 1 7.96013 4.5793 6.56324 0.769513 -2.96191 -4.12135
73 1 9.98313 4.5793 4.54024 0.769514 -2.9619 -4.12135
74 1 12.0061 6.6023 4.54024 0.769514 -2.96191 -4.12135
75 1 9.98313 6.6023 6.56324 0.769514 -2.96191 -4.12135
76 1 12.0061 4.5793 6.56324 0.769517 -2.96191 -4.12135
77 1 14.0291 4.5793 4.54024 0.769514 -2.96191 -4.12134
78 1 16.0521 6.6023 4.54024 0.769509 -2.96191 -4.12134
79 1 14.0291 6.6023 6.56324 0.769509 -2.96191 -4.12135
80 1 16.0521 4.5793 6.56324 0.769511 -2.96191 -4.12135
81 1 1.89113 8.6253 4.54024 0.769512 -2.96191 -4.12135
82 1 3.91413 10.6483 4.54024 0.769514 -2.96191 -4.12135
83 1 1.89113 10.6483 6.56324 0.769514 -2.96191 -4.12136
84 1 3.91413 8.6253 6.56324 0.769512 -2.9619 -4.12135
85 1 5.93713 8.6253 4.54024 0.769511 -2.96191 -4.12135
86 1 7.96013 10.6483 4.54024 0.769515 -2.96191 -4.12134
87 1 5.93713 10.6483 6.56324 0.769512 -2.96191 -4.12135
88 1 7.96013 8.6253 6.56324 0.769513 -2.96191 -4.12135
89 1 9.98313 8.6253 4.54024 0.769517 -2.9619 -4.12135
90 1 12.0061 10.6483 4.54024 0.769516 -2.9619 -4.12135
91 1 9.98313 10.6483 6.56324 0.769521 -2.96191 -4.12135
92 1 12.0061 8.6253 6.56324 0.769512 -2.96191 -4.12136
93 1 14.0291 8.6253 4.54024 0.769516 -2.96191 -4.12135
94 1 16.0521 10.6483 4.54024 0.769514 -2.96191 -4.12134
95 1 14.0291 10.6483 6.56324 0.769512 -2.9619 -4.12135
96 1 16.0521 8.6253 6.56324 0.769515 -2.96191 -4.12135
97 1 1.89113 12.6713 4.54024 0.769514 -2.96191 -4.12134
98 1 3.91413 14.6943 4.54024 0.769519 -2.96191 -4.12134
99 1 1.89113 14.6943 6.56324 0.769515 -2.96191 -4.12135
100 1 3.91413 12.6713 6.56324 0.769521 -2.9619 -4.12135
101 1 5.93713 12.6713 4.54024 0.769516 -2.96191 -4.12135
102 1 7.96013 14.6943 4.54024 0.769515 -2.96191 -4.12135
103 1 5.93713 14.6943 6.56324 0.769509 -2.96191 -4.12134
104 1 7.96013 12.6713 6.56324 0.76952 -2.96191 -4.12135
105 1 9.98313 12.6713 4.54024 0.769515 -2.9619 -4.12135
106 1 12.0061 14.6943 4.54024 0.769512 -2.96191 -4.12135
107 1 9.98313 14.6943 6.56324 0.769515 -2.96191 -4.12135
108 1 12.0061 12.6713 6.56324 0.769513 -2.9619 -4.12134
109 1 14.0291 12.6713 4.54024 0.769515 -2.9619 -4.12135
110 1 16.0521 14.6943 4.54024 0.769515 -2.9619 -4.12135
111 1 14.0291 14.6943 6.56324 0.769517 -2.96191 -4.12135
112 1 16.0521 12.6713 6.56324 0.769512 -2.96191 -4.12135
113 1 1.89113 0.533302 4.54024 0.769505 -2.9619 -4.12135
114 1 3.91413 2.5563 4.54024 0.769512 -2.9619 -4.12135
115 1 1.89113 2.5563 6.56324 0.76952 -2.96191 -4.12135
116 1 3.91413 0.533302 6.56324 0.769513 -2.96191 -4.12135
117 1 5.93713 0.533302 4.54024 0.769518 -2.96191 -4.12135
118 1 7.96013 2.5563 4.54024 0.769511 -2.9619 -4.12135
119 1 5.93713 2.5563 6.56324 0.76952 -2.96191 -4.12135
120 1 7.96013 0.533301 6.56324 0.769513 -2.9619 -4.12135
121 1 9.98313 0.533302 4.54024 0.769521 -2.96191 -4.12135
122 1 12.0061 2.5563 4.54024 0.76951 -2.96191 -4.12135
123 1 9.98313 2.5563 6.56324 0.769516 -2.96191 -4.12135
124 1 12.0061 0.533302 6.56324 0.769515 -2.96191 -4.12135
125 1 14.0291 0.533302 4.54024 0.769517 -2.96191 -4.12135
126 1 16.0521 2.5563 4.54024 0.769513 -2.96191 -4.12135
127 1 14.0291 2.5563 6.56324 0.769513 -2.9619 -4.12135
128 1 16.0521 0.533301 6.56324 0.769512 -2.9619 -4.12135
129 1 1.89113 4.5793 8.58624 0.769516 -2.96191 -4.12135
130 1 3.91413 6.6023 8.58624 0.769514 -2.9619 -4.12135
131 1 1.89113 6.6023 10.6092 0.76951 -2.96191 -4.12135
132 1 3.91413 4.5793 10.6092 0.769513 -2.96191 -4.12135
133 1 5.93713 4.5793 8.58624 0.769512 -2.9619 -4.12135
134 1 7.96013 6.6023 8.58624 0.76951 -2.96191 -4.12135
135 1 5.93713 6.6023 10.6092 0.769515 -2.96191 -4.12135
136 1 7.96013 4.5793 10.6092 0.769512 -2.96191 -4.12134
137 1 9.98313 4.5793 8.58624 0.769516 -2.9619 -4.12135
138 1 12.0061 6.6023 8.58624 0.769517 -2.96191 -4.12134
139 1 9.98313 6.6023 10.6092 0.769518 -2.9619 -4.12135
140 1 12.0061 4.5793 10.6092 0.769509 -2.96191 -4.12135
141 1 14.0291 4.5793 8.58624 0.769509 -2.96191 -4.12136
142 1 16.0521 6.6023 8.58624 0.769513 -2.96191 -4.12135
143 1 14.0291 6.6023 10.6092 0.769515 -2.96191 -4.12135
144 1 16.0521 4.5793 10.6092 0.769518 -2.96191 -4.12135
145 1 1.89113 8.6253 8.58624 0.769512 -2.9619 -4.12135
146 1 3.91413 10.6483 8.58624 0.769514 -2.96191 -4.12135
147 1 1.89113 10.6483 10.6092 0.769514 -2.9619 -4.12135
148 1 3.91413 8.6253 10.6092 0.769512 -2.9619 -4.12135
149 1 5.93713 8.6253 8.58624 0.769514 -2.96191 -4.12135
150 1 7.96013 10.6483 8.58624 0.769516 -2.9619 -4.12135
151 1 5.93713 10.6483 10.6092 0.769513 -2.9619 -4.12135
152 1 7.96013 8.6253 10.6092 0.769506 -2.9619 -4.12135
153 1 9.98313 8.6253 8.58624 0.769512 -2.96191 -4.12135
154 1 12.0061 10.6483 8.58624 0.769511 -2.96191 -4.12135
155 1 9.98313 10.6483 10.6092 0.769515 -2.96191 -4.12134
156 1 12.0061 8.6253 10.6092 0.769513 -2.96191 -4.12135
157 1 14.0291 8.6253 8.58624 0.769518 -2.96191 -4.12135
158 1 16.0521 10.6483 8.58624 0.76952 -2.9619 -4.12135
159 1 14.0291 10.6483 10.6092 0.769516 -2.96191 -4.12135
160 1 16.0521 8.6253 10.6092 0.76951 -2.9619 -4.12135
161 1 1.89113 12.6713 8.58624 0.769511 -2.9619 -4.12134
162 1 3.91413 14.6943 8.58624 0.769521 -2.9619 -4.12134
163 1 1.89113 14.6943 10.6092 0.769517 -2.96191 -4.12135
164 1 3.91413 12.6713 10.6092 0.769515 -2.96191 -4.12135
165 1 5.93713 12.6713 8.58624 0.769518 -2.96191 -4.12135
166 1 7.96013 14.6943 8.58624 0.769512 -2.9619 -4.12135
167 1 5.93713 14.6943 10.6092 0.769515 -2.9619 -4.12134
168 1 7.96013 12.6713 10.6092 0.769514 -2.96191 -4.12134
169 1 9.98313 12.6713 8.58624 0.769515 -2.96191 -4.12135
170 1 12.0061 14.6943 8.58624 0.769521 -2.96191 -4.12135
171 1 9.98313 14.6943 10.6092 0.769516 -2.96191 -4.12135
172 1 12.0061 12.6713 10.6092 0.769514 -2.96191 -4.12135
173 1 14.0291 12.6713 8.58624 0.769515 -2.96191 -4.12134
174 1 16.0521 14.6943 8.58624 0.769511 -2.9619 -4.12135
175 1 14.0291 14.6943 10.6092 0.769514 -2.9619 -4.12135
176 1 16.0521 12.6713 10.6092 0.769514 -2.9619 -4.12135
177 1 1.89113 0.533302 8.58624 0.769513 -2.9619 -4.12135
178 1 3.91413 2.5563 8.58624 0.769513 -2.96191 -4.12135
179 1 1.89113 2.5563 10.6092 0.769511 -2.96191 -4.12135
180 1 3.91413 0.533302 10.6092 0.769511 -2.9619 -4.12134
181 1 5.93713 0.533302 8.58624 0.769519 -2.96191 -4.12135
182 1 7.96013 2.5563 8.58624 0.769508 -2.96191 -4.12135
183 1 5.93713 2.5563 10.6092 0.769513 -2.96191 -4.12135
184 1 7.96013 0.533302 10.6092 0.769511 -2.9619 -4.12135
185 1 9.98313 0.533302 8.58624 0.769516 -2.96191 -4.12135
186 1 12.0061 2.5563 8.58624 0.769512 -2.96191 -4.12135
187 1 9.98313 2.5563 10.6092 0.769516 -2.9619 -4.12135
188 1 12.0061 0.533301 10.6092 0.769521 -2.96191 -4.12135
189 1 14.0291 0.533301 8.58624 0.769512 -2.96191 -4.12135
190 1 16.0521 2.5563 8.58624 0.769516 -2.96191 -4.12135
191 1 14.0291 2.5563 10.6092 0.769514 -2.96191 -4.12135
192 1 16.0521 0.533302 10.6092 0.769516 -2.96191 -4.12135
193 1 1.89113 4.5793 12.6322 0.76952 -2.96192 -4.12135
194 1 3.91413 6.6023 12.6322 0.769514 -2.9619 -4.12135
195 1 1.89113 6.6023 14.6552 0.769516 -2.9619 -4.12135
196 1 3.91413 4.5793 14.6552 0.769515 -2.96191 -4.12135
197 1 5.93713 4.5793 12.6322 0.769517 -2.96191 -4.12135
198 1 7.96013 6.6023 12.6322 0.769512 -2.9619 -4.12135
199 1 5.93713 6.6023 14.6552 0.769513 -2.96191 -4.12135
200 1 7.96013 4.5793 14.6552 0.769518 -2.96191 -4.12135
201 1 9.98313 4.5793 12.6322 0.769513 -2.96191 -4.12135
202 1 12.0061 6.6023 12.6322 0.769512 -2.9619 -4.12134
203 1 9.98313 6.6023 14.6552 0.769513 -2.96191 -4.12136
204 1 12.0061 4.5793 14.6552 0.769511 -2.96191 -4.12134
205 1 14.0291 4.5793 12.6322 0.769518 -2.96191 -4.12135
206 1 16.0521 6.6023 12.6322 0.769515 -2.96191 -4.12135
207 1 14.0291 6.6023 14.6552 0.769518 -2.96191 -4.12134
208 1 16.0521 4.5793 14.6552 0.769512 -2.96191 -4.12135
209 1 1.89113 8.6253 12.6322 0.769513 -2.96191 -4.12135
210 1 3.91413 10.6483 12.6322 0.769516 -2.9619 -4.12135
211 1 1.89113 10.6483 14.6552 0.769511 -2.9619 -4.12135
212 1 3.91413 8.6253 14.6552 0.769516 -2.96191 -4.12135
213 1 5.93713 8.6253 12.6322 0.769516 -2.96191 -4.12135
214 1 7.96013 10.6483 12.6322 0.769515 -2.96191 -4.12135
215 1 5.93713 10.6483 14.6552 0.76951 -2.96191 -4.12135
216 1 7.96013 8.6253 14.6552 0.769515 -2.96191 -4.12135
217 1 9.98313 8.6253 12.6322 0.769516 -2.96191 -4.12135
218 1 12.0061 10.6483 12.6322 0.769515 -2.9619 -4.12135
219 1 9.98313 10.6483 14.6552 0.769515 -2.9619 -4.12134
220 1 12.0061 8.6253 14.6552 0.769518 -2.96191 -4.12135
221 1 14.0291 8.6253 12.6322 0.769512 -2.96191 -4.12135
222 1 16.0521 10.6483 12.6322 0.769518 -2.9619 -4.12135
223 1 14.0291 10.6483 14.6552 0.769513 -2.9619 -4.12135
224 1 16.0521 8.6253 14.6552 0.769509 -2.96191 -4.12134
225 1 1.89113 12.6713 12.6322 0.769522 -2.9619 -4.12135
226 1 3.91413 14.6943 12.6322 0.769506 -2.96191 -4.12135
227 1 1.89113 14.6943 14.6552 0.769517 -2.96191 -4.12135
228 1 3.91413 12.6713 14.6552 0.769515 -2.9619 -4.12134
229 1 5.93713 12.6713 12.6322 0.76951 -2.9619 -4.12135
230 1 7.96013 14.6943 12.6322 0.769521 -2.9619 -4.12135
231 1 5.93713 14.6943 14.6552 0.769517 -2.9619 -4.12135
232 1 7.96013 12.6713 14.6552 0.769508 -2.9619 -4.12135
233 1 9.98313 12.6713 12.6322 0.769516 -2.96191 -4.12135
234 1 12.0061 14.6943 12.6322 0.769514 -2.9619 -4.12135
235 1 9.98313 14.6943 14.6552 0.769516 -2.9619 -4.12135
236 1 12.0061 12.6713 14.6552 0.769512 -2.9619 -4.12135
237 1 14.0291 12.6713 12.6322 0.769516 -2.96191 -4.12135
238 1 16.0521 14.6943 12.6322 0.769518 -2.96191 -4.12135
239 1 14.0291 14.6943 14.6552 0.769518 -2.96191 -4.12135
240 1 16.0521 12.6713 14.6552 0.769514 -2.9619 -4.12134
241 1 1.89113 0.533302 12.6322 0.769511 -2.96191 -4.12135
242 1 3.91413 2.5563 12.6322 0.76952 -2.96191 -4.12135
243 1 1.89113 2.5563 14.6552 0.769512 -2.96191 -4.12135
244 1 3.91413 0.533302 14.6552 0.769517 -2.9619 -4.12135
245 1 5.93713 0.533302 12.6322 0.769515 -2.96191 -4.12135
246 1 7.96013 2.5563 12.6322 0.769516 -2.9619 -4.12135
247 1 5.93713 2.5563 14.6552 0.76952 -2.9619 -4.12135
248 1 7.96013 0.533302 14.6552 0.769513 -2.96191 -4.12135
249 1 9.98313 0.533302 12.6322 0.769509 -2.96191 -4.12135
250 1 12.0061 2.5563 12.6322 0.769514 -2.96191 -4.12135
251 1 9.98313 2.5563 14.6552 0.769512 -2.96191 -4.12135
252 1 12.0061 0.533302 14.6552 0.769516 -2.9619 -4.12135
253 1 14.0291 0.533301 12.6322 0.769513 -2.9619 -4.12135
254 1 16.0521 2.5563 12.6322 0.769517 -2.96191 -4.12135
255 1 14.0291 2.5563 14.6552 0.769511 -2.96191 -4.12135
256 1 16.0521 0.533302 14.6552 0.769517 -2.9619 -4.12135
