ITEM: TIMESTEP
70000000
ITEM: NUMBER OF ATOMS
256
ITEM: BOX BOUNDS pp pp pp
0.0000000000000000e+00 1.6184000000000001e+01
0.0000000000000000e+00 1.6184000000000001e+01
0.0000000000000000e+00 1.6184000000000001e+01
ITEM: ATOMS id type x y z vx vy vz
1 1 2.21157 13.6015 5.72689 0.817377 -3.14613 -4.37769
2 1 4.23457 15.6245 5.72689 0.817376 -3.14613 -4.37769
3 1 2.21157 15.6244 7.74989 0.817374 -3.14613 -4.37768
4 1 4.23457 13.6015 7.74989 0.817372 -3.14613 -4.37769
5 1 6.25757 13.6015 5.72689 0.817372 -3.14613 -4.37769
6 1 8.28057 15.6244 5.72689 0.817379 -3.14613 -4.3777
7 1 6.25757 15.6244 7.74989 0.817377 -3.14613 -4.37769
8 1 8.28057 13.6015 7.74989 0.817378 -3.14613 -4.37769
9 1 10.3036 13.6014 5.72689 0.817384 -3.14613 -4.37769
10 1 12.3266 15.6244 5.72689 0.817377 -3.14613 -4.37769
11 1 10.3036 15.6245 7.74989 0.81738 -3.14613 -4.37769
12 1 12.3266 13.6015 7.74989 0.817369 -3.14613 -4.37769
13 1 14.3496 13.6015 5.72689 0.817376 -3.14613 -4.37769
14 1 0.188572 15.6245 5.72689 0.817381 -3.14613 -4.37769
15 1 14.3496 15.6245 7.74989 0.817377 -3.14613 -4.37769
16 1 0.188572 13.6015 7.74989 0.817376 -3.14613 -4.37769
17 1 2.21157 1.46345 5.72689 0.817366 -3.14613 -4.37769
18 1 4.23457 3.48645 5.72689 0.817375 -3.14613 -4.37769
19 1 2.21157 3.48645 7.74989 0.81737 -3.14613 -4.37769
20 1 4.23457 1.46345 7.74989 0.817378 -3.14613 -4.37769
21 1 6.25757 1.46345 5.72689 0.817374 -3.14613 -4.37769
22 1 8.28057 3.48645 5.72689 0.817374 -3.14613 -4.37769
23 1 6.25757 3.48645 7.74989 0.817379 -3.14613 -4.37769
24 1 8.28057 1.46345 7.74989 0.817384 -3.14613 -4.37769
25 1 10.3036 1.46345 5.72689 0.817379 -3.14613 -4.37769
26 1 12.3266 3.48645 5.72689 0.817384 -3.14613 -4.37768
27 1 10.3036 3.48645 7.74989 0.817379 -3.14613 -4.37769
28 1 12.3266 1.46345 7.74989 0.817381 -3.14613 -4.37769
29 1 14.3496 1.46345 5.72689 0.817378 -3.14613 -4.37769
30 1 0.188572 3.48645 5.72689 0.817374 -3.14613 -4.37768
31 1 14.3496 3.48645 7.74989 0.817377 -3.14614 -4.37768
32 1 0.188572 1.46345 7.74989 0.817379 -3.14613 -4.37769
33 1 2.21157 5.50945 5.72689 0.817371 -3.14613 -4.37769
34 1 4.23457 7.53245 5.72689 0.817379 -3.14613 -4.37768
35 1 2.21157 7.53245 7.74989 0.817379 -3.14613 -4.37768
36 1 4.23457 5.50945 7.74989 0.817377 -3.14613 -4.37769
37 1 6.25757 5.50945 5.72689 0.817384 -3.14613 -4.37769
38 1 8.28057 7.53245 5.72689 0.817375 -3.14613 -4.37769
39 1 6.25757 7.53245 7.74989 0.817382 -3.14613 -4.37768
40 1 8.28057 5.50945 7.74989 0.817377 -3.14613 -4.37769
41 1 10.3036 5.50945 5.72689 0.817381 -3.14613 -4.37769
42 1 12.3266 7.53245 5.72689 0.817377 -3.14613 -4.37769
43 1 10.3036 7.53245 7.74989 0.817377 -3.14614 -4.37769
44 1 12.3266 5.50945 7.74989 0.817381 -3.14613 -4.37768
45 1 14.3496 5.50945 5.72689 0.817379 -3.14613 -4.37768
46 1 0.188572 7.53245 5.72689 0.817379 -3.14612 -4.37768
47 1 14.3496 7.53245 7.74989 0.817377 -3.14613 -4.37769
48 1 0.188572 5.50945 7.74989 0.817376 -3.14613 -4.37769
49 1 2.21157 9.55545 5.72689 0.817386 -3.14613 -4.37768
50 1 4.23457 11.5785 5.72689 0.817384 -3.14613 -4.37768
51 1 2.21157 11.5785 7.74989 0.817375 -3.14613 -4.37769
52 1 4.23457 9.55545 7.74989 0.817377 -3.14613 -4.37769
53 1 6.25757 9.55545 5.72689 0.817376 -3.14613 -4.37769
54 1 8.28057 11.5784 5.72689 0.817374 -3.14613 -4.3777
55 1 6.25757 11.5785 7.74989 0.817375 -3.14613 -4.37769
56 1 8.28057 9.55545 7.74989 0.817376 -3.14612 -4.37769
57 1 10.3036 9.55545 5.72689 0.817378 -3.14613 -4.37769
58 1 12.3266 11.5784 5.72689 0.817382 -3.14613 -4.37769
59 1 10.3036 11.5784 7.74989 0.817383 -3.14613 -4.37769
60 1 12.3266 9.55545 7.74989 0.817376 -3.14613 -4.37769
61 1 14.3496 9.55545 5.72689 0.817379 -3.14614 -4.37768
62 1 0.188572 11.5785 5.72689 0.817375 -3.14613 -4.37769
63 1 14.3496 11.5785 7.74989 0.817378 -3.14613 -4.37769
64 1 0.188572 9.55545 7.74989 0.817376 -3.14613 -4.37769
65 1 2.21157 13.6015 9.77289 0.817378 -3.14613 -4.37768
66 1 4.23457 15.6245 9.77289 0.817384 -3.14613 -4.37769
67 1 2.21157 15.6245 11.7959 0.817376 -3.14613 -4.37768
68 1 4.23457 13.6015 11.7959 0.817382 -3.14613 -4.37769
69 1 6.25757 13.6015 9.77289 0.817375 -3.14613 -4.37769
70 1 8.28057 15.6244 9.77289 0.81738 -3.14613 -4.37769
71 1 6.25757 15.6244 11.7959 0.817378 -3.14613 -4.37769
72 1 8.28057 13.6014 11.7959 0.817376 -3.14613 -4.37769
73 1 10.3036 13.6014 9.77289 0.817372 -3.14613 -4.37769
74 1 12.3266 15.6245 9.77289 0.817372 -3.14613 -4.37769
75 1 10.3036 15.6245 11.7959 0.817372 -3.14613 -4.37769
76 1 12.3266 13.6015 11.7959 0.817371 -3.14613 -4.37769
77 1 14.3496 13.6015 9.77289 0.817374 -3.14613 -4.37769
78 1 0.188572 15.6245 9.77289 0.817381 -3.14613 -4.37769
79 1 14.3496 15.6245 11.7959 0.817369 -3.14613 -4.37769
80 1 0.188572 13.6015 11.7959 0.817366 -3.14613 -4.37769
81 1 2.21157 1.46345 9.77289 0.817375 -3.14614 -4.37769
82 1 4.23457 3.48645 9.77289 0.817373 -3.14613 -4.37769
83 1 2.21157 3.48645 11.7959 0.817373 -3.14613 -4.37769
84 1 4.23457 1.46345 11.7959 0.817377 -3.14613 -4.37769
85 1 6.25757 1.46345 9.77289 0.81738 -3.14613 -4.37769
86 1 8.28057 3.48645 9.77289 0.81738 -3.14613 -4.37769
87 1 6.25757 3.48645 11.7959 0.81737 -3.14613 -4.37769
88 1 8.28057 1.46345 11.7959 0.817374 -3.14613 -4.37769
89 1 10.3036 1.46345 9.77289 0.817381 -3.14613 -4.37769
90 1 12.3266 3.48645 9.77289 0.817377 -3.14612 -4.37769
91 1 10.3036 3.48645 11.7959 0.817378 -3.14613 -4.37769
92 1 12.3266 1.46345 11.7959 0.817378 -3.14613 -4.37769
93 1 14.3496 1.46345 9.77289 0.817371 -3.14613 -4.37769
94 1 0.188572 3.48645 9.77289 0.817375 -3.14613 -4.37769
95 1 14.3496 3.48645 11.7959 0.817376 -3.14613 -4.37768
96 1 0.188572 1.46345 11.7959 0.817377 -3.14613 -4.37769
97 1 2.21157 5.50945 9.77289 0.817381 -3.14614 -4.37769
98 1 4.23457 7.53245 9.77289 0.817375 -3.14613 -4.37769
99 1 2.21157 7.53245 11.7959 0.817377 -3.14614 -4.37769
100 1 4.23457 5.50945 11.7959 0.817381 -3.14613 -4.37769
101 1 6.25757 5.50945 9.77289 0.81738 -3.14613 -4.37769
102 1 8.28057 7.53245 9.77289 0.817373 -3.14613 -4.37769
103 1 6.25757 7.53245 11.7959 0.81738 -3.14613 -4.37769
104 1 8.28057 5.50945 11.7959 0.817373 -3.14613 -4.37769
105 1 10.3036 5.50945 9.77289 0.817374 -3.14613 -4.37769
106 1 12.3266 7.53245 9.77289 0.817378 -3.14613 -4.37769
107 1 10.3036 7.53245 11.7959 0.817377 -3.14614 -4.37769
108 1 12.3266 5.50945 11.7959 0.817381 -3.14613 -4.37769
109 1 14.3496 5.50945 9.77289 0.817373 -3.14613 -4.37768
110 1 0.188572 7.53245 9.77289 0.817383 -3.14613 -4.37768
111 1 14.3496 7.53245 11.7959 0.817376 -3.14614 -4.37769
112 1 0.188572 5.50945 11.7959 0.817377 -3.14613 -4.37769
113 1 2.21157 9.55545 9.77289 0.817383 -3.14613 -4.37769
114 1 4.23457 11.5785 9.77289 0.817384 -3.14614 -4.37769
115 1 2.21157 11.5785 11.7959 0.817381 -3.14613 -4.3777
116 1 4.23457 9.55545 11.7959 0.817381 -3.14612 -4.37769
117 1 6.25757 9.55545 9.77289 0.817378 -3.14613 -4.37769
118 1 8.28057 11.5784 9.77289 0.817377 -3.14613 -4.37769
119 1 6.25757 11.5785 11.7959 0.817378 -3.14613 -4.37769
120 1 8.28057 9.55545 11.7959 0.817373 -3.14613 -4.3777
121 1 10.3036 9.55545 9.77289 0.817376 -3.14613 -4.37769
122 1 12.3266 11.5785 9.77289 0.817377 -3.14613 -4.37769
123 1 10.3036 11.5785 11.7959 0.817376 -3.14613 -4.37769
124 1 12.3266 9.55545 11.7959 0.81737 -3.14613 -4.37769
125 1 14.3496 9.55545 9.77289 0.817381 -3.14613 -4.37769
126 1 0.188572 11.5785 9.77289 0.81738 -3.14613 -4.37769
127 1 14.3496 11.5784 11.7959 0.817373 -3.14613 -4.37768
128 1 0.188572 9.55545 11.7959 0.817377 -3.14612 -4.3777
129 1 2.21157 13.6015 13.8189 0.817375 -3.14613 -4.37769
130 1 4.23457 15.6245 13.8189 0.817375 -3.14613 -4.3777
131 1 2.21157 15.6245 15.8419 0.817378 -3.14613 -4.37769
132 1 4.23457 13.6014 15.8419 0.817377 -3.14613 -4.3777
133 1 6.25757 13.6015 13.8189 0.817381 -3.14613 -4.37769
134 1 8.28057 15.6245 13.8189 0.817379 -3.14613 -4.37768
135 1 6.25757 15.6244 15.8419 0.817372 -3.14612 -4.37768
136 1 8.28057 13.6015 15.8419 0.817375 -3.14613 -4.37768
137 1 10.3036 13.6015 13.8189 0.817378 -3.14613 -4.37768
138 1 12.3266 15.6245 13.8189 0.817373 -3.14613 -4.37769
139 1 10.3036 15.6245 15.8419 0.817372 -3.14613 -4.37769
140 1 12.3266 13.6015 15.8419 0.81738 -3.14613 -4.37769
141 1 14.3496 13.6014 13.8189 0.817372 -3.14613 -4.37769
142 1 0.188572 15.6244 13.8189 0.817371 -3.14613 -4.37769
143 1 14.3496 15.6245 15.8419 0.817379 -3.14612 -4.37769
144 1 0.188572 13.6015 15.8419 0.81738 -3.14613 -4.37769
145 1 2.21157 1.46345 13.8189 0.817376 -3.14612 -4.37769
146 1 4.23457 3.48645 13.8189 0.817373 -3.14613 -4.37769
147 1 2.21157 3.48645 15.8419 0.817379 -3.14613 -4.37769
148 1 4.23457 1.46345 15.8419 0.817376 -3.14613 -4.37769
149 1 6.25757 1.46345 13.8189 0.81738 -3.14613 -4.37769
150 1 8.28057 3.48645 13.8189 0.81738 -3.14613 -4.37768
151 1 6.25757 3.48645 15.8419 0.817372 -3.14612 -4.37768
152 1 8.28057 1.46345 15.8419 0.817369 -3.14613 -4.37769
153 1 10.3036 1.46345 13.8189 0.817367 -3.14613 -4.37768
154 1 12.3266 3.48645 13.8189 0.817371 -3.14613 -4.37768
155 1 10.3036 3.48645 15.8419 0.817379 -3.14613 -4.37769
156 1 12.3266 1.46345 15.8419 0.817379 -3.14613 -4.37769
157 1 14.3496 1.46345 13.8189 0.81737 -3.14614 -4.37769
158 1 0.188572 3.48645 13.8189 0.817379 -3.14614 -4.37768
159 1 14.3496 3.48645 15.8419 0.817379 -3.14613 -4.37768
160 1 0.188572 1.46345 15.8419 0.817378 -3.14613 -4.37769
161 1 2.21157 5.50945 13.8189 0.817374 -3.14613 -4.37769
162 1 4.23457 7.53245 13.8189 0.81738 -3.14613 -4.37769
163 1 2.21157 7.53245 15.8419 0.817376 -3.14613 -4.37769
164 1 4.23457 5.50945 15.8419 0.817377 -3.14613 -4.37769
165 1 6.25757 5.50945 13.8189 0.817374 -3.14612 -4.37768
166 1 8.28057 7.53245 13.8189 0.817375 -3.14613 -4.37769
167 1 6.25757 7.53245 15.8419 0.817382 -3.14613 -4.37769
168 1 8.28057 5.50945 15.8419 0.817378 -3.14613 -4.37768
169 1 10.3036 5.50945 13.8189 0.817377 -3.14613 -4.37769
170 1 12.3266 7.53245 13.8189 0.817376 -3.14614 -4.37768
171 1 10.3036 7.53245 15.8419 0.817379 -3.14613 -4.37769
172 1 12.3266 5.50945 15.8419 0.817383 -3.14613 -4.37769
173 1 14.3496 5.50945 13.8189 0.817378 -3.14614 -4.37769
174 1 0.188572 7.53245 13.8189 0.817383 -3.14613 -4.37769
175 1 14.3496 7.53245 15.8419 0.817374 -3.14612 -4.37769
176 1 0.188572 5.50945 15.8419 0.817377 -3.14613 -4.37768
177 1 2.21157 9.55545 13.8189 0.817375 -3.14613 -4.37769
178 1 4.23457 11.5784 13.8189 0.817382 -3.14614 -4.37769
179 1 2.21157 11.5784 15.8419 0.817375 -3.14613 -4.37769
180 1 4.23457 9.55545 15.8419 0.817381 -3.14613 -4.37769
181 1 6.25757 9.55545 13.8189 0.817375 -3.14613 -4.37769
182 1 8.28057 11.5785 13.8189 0.817376 -3.14613 -4.37768
183 1 6.25757 11.5784 15.8419 0.817375 -3.14613 -4.37769
184 1 8.28057 9.55545 15.8419 0.817378 -3.14613 -4.37769
185 1 10.3036 9.55545 13.8189 0.817373 -3.14613 -4.37769
186 1 12.3266 11.5784 13.8189 0.81737 -3.14613 -4.37769
187 1 10.3036 11.5785 15.8419 0.817372 -3.14613 -4.37769
188 1 12.3266 9.55545 15.8419 0.817376 -3.14614 -4.37769
189 1 14.3496 9.55545 13.8189 0.817374 -3.14613 -4.37769
190 1 0.188572 11.5785 13.8189 0.817378 -3.14613 -4.37769
191 1 14.3496 11.5785 15.8419 0.817375 -3.14613 -4.37768
192 1 0.188572 9.55545 15.8419 0.817373 -3.14613 -4.37769
193 1 2.21157 13.6015 1.68089 0.817379 -3.14613 -4.37769
194 1 4.23457 15.6245 1.68089 0.817374 -3.14613 -4.37769
195 1 2.21157 15.6245 3.70389 0.81738 -3.14613 -4.37769
196 1 4.23457 13.6015 3.70389 0.817374 -3.14613 -4.37769
197 1 6.25757 13.6015 1.68089 0.817372 -3.14613 -4.37769
198 1 8.28057 15.6245 1.68089 0.817372 -3.14612 -4.37769
199 1 6.25757 15.6245 3.70389 0.817377 -3.14613 -4.37768
200 1 8.28057 13.6014 3.70389 0.817376 -3.14613 -4.37769
201 1 10.3036 13.6015 1.68089 0.817374 -3.14613 -4.37768
202 1 12.3266 15.6244 1.68089 0.817372 -3.14613 -4.37769
203 1 10.3036 15.6244 3.70389 0.817375 -3.14613 -4.3777
204 1 12.3266 13.6015 3.70389 0.817381 -3.14614 -4.37769
205 1 14.3496 13.6015 1.68089 0.817381 -3.14613 -4.37769
206 1 0.188572 15.6244 1.68089 0.817378 -3.14614 -4.37769
207 1 14.3496 15.6245 3.70389 0.817381 -3.14613 -4.37769
208 1 0.188572 13.6015 3.70389 0.817378 -3.14613 -4.37769
209 1 2.21157 1.46345 1.68089 0.817373 -3.14613 -4.37768
210 1 4.23457 3.48645 1.68089 0.817376 -3.14613 -4.37769
211 1 2.21157 3.48645 3.70389 0.81737 -3.14613 -4.37769
212 1 4.23457 1.46345 3.70389 0.817376 -3.14613 -4.37769
213 1 6.25757 1.46345 1.68089 0.817374 -3.14613 -4.37769
214 1 8.28057 3.48645 1.68089 0.817373 -3.14613 -4.37769
215 1 6.25757 3.48645 3.70389 0.817379 -3.14613 -4.37769
216 1 8.28057 1.46345 3.70389 0.817371 -3.14613 -4.37769
217 1 10.3036 1.46345 1.68089 0.817382 -3.14613 -4.37769
218 1 12.3266 3.48645 1.68089 0.817378 -3.14613 -4.37769
219 1 10.3036 3.48645 3.70389 0.817386 -3.14612 -4.37769
220 1 12.3266 1.46345 3.70389 0.817386 -3.14613 -4.37768
221 1 14.3496 1.46345 1.68089 0.817374 -3.14613 -4.37769
222 1 0.188572 3.48645 1.68089 0.817376 -3.14614 -4.37768
223 1 14.3496 3.48645 3.70389 0.817378 -3.14614 -4.37769
224 1 0.188572 1.46345 3.70389 0.817375 -3.14614 -4.37769
225 1 2.21157 5.50945 1.68089 0.817377 -3.14613 -4.37768
226 1 4.23457 7.53245 1.68089 0.817377 -3.14613 -4.37769
227 1 2.21157 7.53245 3.70389 0.817378 -3.14613 -4.37768
228 1 4.23457 5.50945 3.70389 0.817376 -3.14613 -4.37769
229 1 6.25757 5.50945 1.68089 0.817374 -3.14613 -4.37769
230 1 8.28057 7.53245 1.68089 0.817374 -3.14613 -4.37769
231 1 6.25757 7.53245 3.70389 0.817376 -3.14613 -4.37769
232 1 8.28057 5.50945 3.70389 0.817377 -3.14613 -4.37768
233 1 10.3036 5.50945 1.68089 0.81738 -3.14613 -4.37768
234 1 12.3266 7.53245 1.68089 0.817375 -3.14613 -4.37769
235 1 10.3036 7.53245 3.70389 0.817379 -3.14613 -4.37769
236 1 12.3266 5.50945 3.70389 0.817375 -3.14614 -4.37769
237 1 14.3496 5.50945 1.68089 0.817378 -3.14613 -4.37769
238 1 0.188572 7.53245 1.68089 0.81738 -3.14613 -4.37769
239 1 14.3496 7.53245 3.70389 0.817384 -3.14613 -4.37768
240 1 0.188572 5.50945 3.70389 0.81738 -3.14613 -4.37769
241 1 2.21157 9.55545 1.68089 0.817375 -3.14613 -4.37769
242 1 4.23457 11.5784 1.68089 0.817373 -3.14613 -4.37769
243 1 2.21157 11.5785 3.70389 0.817374 -3.14613 -4.37769
244 1 4.23457 9.55545 3.70389 0.817381 -3.14614 -4.37769
245 1 6.25757 9.55545 1.68089 0.817383 -3.14613 -4.37769
246 1 8.28057 11.5784 1.68089 0.817373 -3.14613 -4.37769
247 1 6.25757 11.5785 3.70389 0.817377 -3.14613 -4.37769
248 1 8.28057 9.55545 3.70389 0.81738 -3.14614 -4.37769
249 1 10.3036 9.55545 1.68089 0.817373 -3.14613 -4.37769
250 1 12.3266 11.5784 1.68089 0.817371 -3.14613 -4.37769
251 1 10.3036 11.5784 3.70389 0.817374 -3.14613 -4.37769
252 1 12.3266 9.55545 3.70389 0.817375 -3.14613 -4.37769
253 1 14.3496 9.55545 1.68089 0.817375 -3.14613 -4.37769
254 1 0.188572 11.5785 1.68089 0.81738 -3.14614 -4.37769
255 1 14.3496 11.5785 3.70389 0.817379 -3.14613 -4.37769
256 1 0.188572 9.55545 3.70389 0.817379 -3.14613 -4.37768
