ITEM: TIMESTEP
64000000
ITEM: NUMBER OF ATOMS
256
ITEM: BOX BOUNDS pp pp pp
0.0000000000000000e+00 1.6184000000000001e+01
0.0000000000000000e+00 1.6184000000000001e+01
0.0000000000000000e+00 1.6184000000000001e+01
ITEM: ATOMS id type x y z vx vy vz
1 1 1.57421 13.627 5.48685 0.807108 -3.10661 -4.32271
2 1 3.59721 15.65 5.48685 0.807113 -3.10662 -4.3227
3 1 1.57421 15.65 7.50985 0.80711 -3.10661 -4.32271
4 1 3.59721 13.627 7.50985 0.807112 -3.10662 -4.3227
5 1 5.62021 13.627 5.48685 0.807109 -3.10661 -4.3227
6 1 7.64321 15.65 5.48685 0.807108 -3.10662 -4.3227
7 1 5.62021 15.65 7.50985 0.807108 -3.10662 -4.32269
8 1 7.64321 13.627 7.50985 0.807113 -3.10662 -4.3227
9 1 9.66621 13.627 5.48685 0.80711 -3.10661 -4.3227
10 1 11.6892 15.65 5.48685 0.807116 -3.10662 -4.32269
11 1 9.66621 15.65 7.50985 0.807111 -3.10662 -4.3227
12 1 11.6892 13.627 7.50985 0.807109 -3.10662 -4.32269
13 1 13.7122 13.627 5.48685 0.807116 -3.10661 -4.3227
14 1 15.7352 15.65 5.48685 0.807109 -3.10661 -4.32271
15 1 13.7122 15.65 7.50985 0.807106 -3.10661 -4.3227
16 1 15.7352 13.627 7.50985 0.807113 -3.10662 -4.3227
17 1 1.57421 1.48903 5.48685 0.807109 -3.10662 -4.32271
18 1 3.59721 3.51203 5.48685 0.80711 -3.10661 -4.3227
19 1 1.57421 3.51203 7.50985 0.807109 -3.10661 -4.32271
20 1 3.59721 1.48903 7.50985 0.80711 -3.10661 -4.3227
21 1 5.62021 1.48903 5.48685 0.807111 -3.10662 -4.3227
22 1 7.64321 3.51203 5.48685 0.807111 -3.10662 -4.3227
23 1 5.62021 3.51203 7.50985 0.807108 -3.10661 -4.3227
24 1 7.64321 1.48903 7.50985 0.807107 -3.10661 -4.3227
25 1 9.66621 1.48903 5.48685 0.807109 -3.10661 -4.3227
26 1 11.6892 3.51203 5.48685 0.807106 -3.10661 -4.32271
27 1 9.66621 3.51203 7.50985 0.807104 -3.10662 -4.3227
28 1 11.6892 1.48903 7.50985 0.807103 -3.10661 -4.3227
29 1 13.7122 1.48903 5.48685 0.80711 -3.10661 -4.3227
30 1 15.7352 3.51203 5.48685 0.807109 -3.10661 -4.32271
31 1 13.7122 3.51203 7.50985 0.807103 -3.10661 -4.32271
32 1 15.7352 1.48903 7.50985 0.807121 -3.10661 -4.32271
33 1 1.57421 5.53503 5.48685 0.807105 -3.10661 -4.3227
34 1 3.59721 7.55803 5.48685 0.8071 -3.10661 -4.32271
35 1 1.57421 7.55803 7.50985 0.807107 -3.10661 -4.3227
36 1 3.59721 5.53503 7.50985 0.807109 -3.10661 -4.3227
37 1 5.62021 5.53503 5.48685 0.807107 -3.10661 -4.32271
38 1 7.64321 7.55803 5.48685 0.807105 -3.10662 -4.3227
39 1 5.62021 7.55803 7.50985 0.807106 -3.10662 -4.3227
40 1 7.64321 5.53503 7.50985 0.807106 -3.10661 -4.3227
41 1 9.66621 5.53503 5.48685 0.80711 -3.10661 -4.3227
42 1 11.6892 7.55803 5.48685 0.807104 -3.10661 -4.3227
43 1 9.66621 7.55803 7.50985 0.807107 -3.10662 -4.3227
44 1 11.6892 5.53503 7.50985 0.8071 -3.10661 -4.32271
45 1 13.7122 5.53503 5.48685 0.807107 -3.10661 -4.3227
46 1 15.7352 7.55803 5.48685 0.807109 -3.10662 -4.32271
47 1 13.7122 7.55803 7.50985 0.807109 -3.10661 -4.32271
48 1 15.7352 5.53503 7.50985 0.807105 -3.10661 -4.32271
49 1 1.57421 9.58103 5.48685 0.807104 -3.10662 -4.3227
50 1 3.59721 11.604 5.48685 0.807108 -3.10662 -4.3227
51 1 1.57421 11.604 7.50985 0.807105 -3.10661 -4.3227
52 1 3.59721 9.58103 7.50985 0.807106 -3.10662 -4.3227
53 1 5.62021 9.58103 5.48685 0.80711 -3.10661 -4.3227
54 1 7.64321 11.604 5.48685 0.807106 -3.10661 -4.3227
55 1 5.62021 11.604 7.50985 0.807112 -3.10662 -4.3227
56 1 7.64321 9.58103 7.50985 0.807104 -3.10662 -4.3227
57 1 9.66621 9.58103 5.48685 0.807105 -3.10661 -4.32269
58 1 11.6892 11.604 5.48685 0.80711 -3.10661 -4.3227
59 1 9.66621 11.604 7.50985 0.807113 -3.10661 -4.32269
60 1 11.6892 9.58103 7.50985 0.807105 -3.10661 -4.3227
61 1 13.7122 9.58103 5.48685 0.807103 -3.10661 -4.32271
62 1 15.7352 11.604 5.48685 0.807108 -3.10661 -4.3227
63 1 13.7122 11.604 7.50985 0.807108 -3.10662 -4.3227
64 1 15.7352 9.58103 7.50985 0.807109 -3.10662 -4.32271
65 1 1.57421 13.627 9.53285 0.807116 -3.10662 -4.3227
66 1 3.59721 15.65 9.53285 0.807111 -3.10661 -4.3227
67 1 1.57421 15.65 11.5559 0.807106 -3.10661 -4.32271
68 1 3.59721 13.627 11.5559 0.807115 -3.10662 -4.3227
69 1 5.62021 13.627 9.53285 0.807111 -3.10662 -4.32269
70 1 7.64321 15.65 9.53285 0.807112 -3.10662 -4.3227
71 1 5.62021 15.65 11.5559 0.807106 -3.10661 -4.3227
72 1 7.64321 13.627 11.5559 0.80711 -3.10661 -4.3227
73 1 9.66621 13.627 9.53285 0.807113 -3.10662 -4.3227
74 1 11.6892 15.65 9.53285 0.807108 -3.10662 -4.3227
75 1 9.66621 15.65 11.5559 0.80711 -3.10661 -4.3227
76 1 11.6892 13.627 11.5559 0.807116 -3.10661 -4.3227
77 1 13.7122 13.627 9.53285 0.807111 -3.10661 -4.3227
78 1 15.7352 15.65 9.53285 0.807116 -3.10661 -4.32271
79 1 13.7122 15.65 11.5559 0.807121 -3.10662 -4.3227
80 1 15.7352 13.627 11.5559 0.807108 -3.10662 -4.3227
81 1 1.57421 1.48903 9.53285 0.807107 -3.10661 -4.3227
82 1 3.59721 3.51203 9.53285 0.807116 -3.10661 -4.3227
83 1 1.57421 3.51203 11.5559 0.807117 -3.10662 -4.32271
84 1 3.59721 1.48903 11.5559 0.807114 -3.10661 -4.3227
85 1 5.62021 1.48903 9.53285 0.807108 -3.10661 -4.3227
86 1 7.64321 3.51203 9.53285 0.807112 -3.10661 -4.3227
87 1 5.62021 3.51203 11.5559 0.807108 -3.10662 -4.3227
88 1 7.64321 1.48903 11.5559 0.80711 -3.10662 -4.3227
89 1 9.66621 1.48903 9.53285 0.807112 -3.10662 -4.3227
90 1 11.6892 3.51203 9.53285 0.807111 -3.10661 -4.32271
91 1 9.66621 3.51203 11.5559 0.807107 -3.10662 -4.3227
92 1 11.6892 1.48903 11.5559 0.807113 -3.10661 -4.3227
93 1 13.7122 1.48903 9.53285 0.80711 -3.10661 -4.3227
94 1 15.7352 3.51203 9.53285 0.807112 -3.10662 -4.32271
95 1 13.7122 3.51203 11.5559 0.807113 -3.10661 -4.3227
96 1 15.7352 1.48903 11.5559 0.807115 -3.10662 -4.32271
97 1 1.57421 5.53503 9.53285 0.807115 -3.10661 -4.3227
98 1 3.59721 7.55803 9.53285 0.80711 -3.10662 -4.3227
99 1 1.57421 7.55803 11.5559 0.807105 -3.10661 -4.32271
100 1 3.59721 5.53503 11.5559 0.807109 -3.10661 -4.3227
101 1 5.62021 5.53503 9.53285 0.807108 -3.10661 -4.3227
102 1 7.64321 7.55803 9.53285 0.80711 -3.10661 -4.3227
103 1 5.62021 7.55803 11.5559 0.807114 -3.10662 -4.3227
104 1 7.64321 5.53503 11.5559 0.807111 -3.10662 -4.32271
105 1 9.66621 5.53503 9.53285 0.807114 -3.10661 -4.3227
106 1 11.6892 7.55803 9.53285 0.807107 -3.10661 -4.3227
107 1 9.66621 7.55803 11.5559 0.80711 -3.10661 -4.3227
108 1 11.6892 5.53503 11.5559 0.807111 -3.10661 -4.32271
109 1 13.7122 5.53503 9.53285 0.807108 -3.10661 -4.32271
110 1 15.7352 7.55803 9.53285 0.807105 -3.10661 -4.32271
111 1 13.7122 7.55803 11.5559 0.807104 -3.10661 -4.32271
112 1 15.7352 5.53503 11.5559 0.807112 -3.10661 -4.3227
113 1 1.57421 9.58103 9.53285 0.80711 -3.10661 -4.3227
114 1 3.59721 11.604 9.53285 0.807106 -3.10661 -4.3227
115 1 1.57421 11.604 11.5559 0.807107 -3.10661 -4.3227
116 1 3.59721 9.58103 11.5559 0.807107 -3.10661 -4.3227
117 1 5.62021 9.58103 9.53285 0.807109 -3.10662 -4.3227
118 1 7.64321 11.604 9.53285 0.807108 -3.10661 -4.3227
119 1 5.62021 11.604 11.5559 0.807109 -3.10661 -4.3227
120 1 7.64321 9.58103 11.5559 0.807109 -3.10662 -4.3227
121 1 9.66621 9.58103 9.53285 0.807107 -3.10662 -4.3227
122 1 11.6892 11.604 9.53285 0.807111 -3.10662 -4.3227
123 1 9.66621 11.604 11.5559 0.807112 -3.10662 -4.3227
124 1 11.6892 9.58103 11.5559 0.807109 -3.10661 -4.3227
125 1 13.7122 9.58103 9.53285 0.807114 -3.10661 -4.32271
126 1 15.7352 11.604 9.53285 0.807112 -3.10661 -4.3227
127 1 13.7122 11.604 11.5559 0.807115 -3.10661 -4.3227
128 1 15.7352 9.58103 11.5559 0.807116 -3.10661 -4.32271
129 1 1.57421 13.627 13.5789 0.807107 -3.10661 -4.32269
130 1 3.59721 15.65 13.5789 0.80711 -3.10662 -4.32271
131 1 1.57421 15.65 15.6019 0.807115 -3.10661 -4.3227
132 1 3.59721 13.627 15.6019 0.807106 -3.10662 -4.3227
133 1 5.62021 13.627 13.5789 0.807106 -3.10662 -4.3227
134 1 7.64321 15.65 13.5789 0.807114 -3.10662 -4.32271
135 1 5.62021 15.65 15.6019 0.807113 -3.10662 -4.3227
136 1 7.64321 13.627 15.6019 0.80711 -3.10662 -4.3227
137 1 9.66621 13.627 13.5789 0.80711 -3.10662 -4.32271
138 1 11.6892 15.65 13.5789 0.807117 -3.10662 -4.3227
139 1 9.66621 15.65 15.6019 0.807114 -3.10661 -4.3227
140 1 11.6892 13.627 15.6019 0.807112 -3.10662 -4.32271
141 1 13.7122 13.627 13.5789 0.807114 -3.10661 -4.3227
142 1 15.7352 15.65 13.5789 0.807111 -3.10661 -4.32271
143 1 13.7122 15.65 15.6019 0.807111 -3.10661 -4.3227
144 1 15.7352 13.627 15.6019 0.807114 -3.10661 -4.32269
145 1 1.57421 1.48903 13.5789 0.807114 -3.10661 -4.3227
146 1 3.59721 3.51203 13.5789 0.807113 -3.10662 -4.32271
147 1 1.57421 3.51203 15.6019 0.807117 -3.10661 -4.32271
148 1 3.59721 1.48903 15.6019 0.807114 -3.10661 -4.3227
149 1 5.62021 1.48903 13.5789 0.807117 -3.10662 -4.32271
150 1 7.64321 3.51203 13.5789 0.807113 -3.10662 -4.32271
151 1 5.62021 3.51203 15.6019 0.807111 -3.10662 -4.3227
152 1 7.64321 1.48903 15.6019 0.807119 -3.10661 -4.3227
153 1 9.66621 1.48903 13.5789 0.807112 -3.10662 -4.3227
154 1 11.6892 3.51203 13.5789 0.807111 -3.10661 -4.3227
155 1 9.66621 3.51203 15.6019 0.807112 -3.10662 -4.3227
156 1 11.6892 1.48903 15.6019 0.80711 -3.10662 -4.3227
157 1 13.7122 1.48903 13.5789 0.80711 -3.10662 -4.3227
158 1 15.7352 3.51203 13.5789 0.807114 -3.10661 -4.3227
159 1 13.7122 3.51203 15.6019 0.807103 -3.10661 -4.32271
160 1 15.7352 1.48903 15.6019 0.807113 -3.10661 -4.3227
161 1 1.57421 5.53503 13.5789 0.807108 -3.10661 -4.32271
162 1 3.59721 7.55803 13.5789 0.807109 -3.10661 -4.3227
163 1 1.57421 7.55803 15.6019 0.807105 -3.10661 -4.3227
164 1 3.59721 5.53503 15.6019 0.807118 -3.10661 -4.32271
165 1 5.62021 5.53503 13.5789 0.807108 -3.10662 -4.32271
166 1 7.64321 7.55803 13.5789 0.807113 -3.10662 -4.32271
167 1 5.62021 7.55803 15.6019 0.807114 -3.10661 -4.3227
168 1 7.64321 5.53503 15.6019 0.807109 -3.10662 -4.32271
169 1 9.66621 5.53503 13.5789 0.807111 -3.10661 -4.3227
170 1 11.6892 7.55803 13.5789 0.807112 -3.10661 -4.32271
171 1 9.66621 7.55803 15.6019 0.807117 -3.10661 -4.3227
172 1 11.6892 5.53503 15.6019 0.807114 -3.10662 -4.32271
173 1 13.7122 5.53503 13.5789 0.807111 -3.10661 -4.32271
174 1 15.7352 7.55803 13.5789 0.807111 -3.10661 -4.3227
175 1 13.7122 7.55803 15.6019 0.807105 -3.10661 -4.32271
176 1 15.7352 5.53503 15.6019 0.807108 -3.10661 -4.32271
177 1 1.57421 9.58103 13.5789 0.807109 -3.10661 -4.32269
178 1 3.59721 11.604 13.5789 0.80711 -3.10661 -4.3227
179 1 1.57421 11.604 15.6019 0.80711 -3.10662 -4.3227
180 1 3.59721 9.58103 15.6019 0.807116 -3.10661 -4.3227
181 1 5.62021 9.58103 13.5789 0.807109 -3.10661 -4.3227
182 1 7.64321 11.604 13.5789 0.807104 -3.10662 -4.3227
183 1 5.62021 11.604 15.6019 0.807117 -3.10661 -4.3227
184 1 7.64321 9.58103 15.6019 0.807118 -3.10661 -4.3227
185 1 9.66621 9.58103 13.5789 0.807113 -3.10662 -4.3227
186 1 11.6892 11.604 13.5789 0.807117 -3.10661 -4.32271
187 1 9.66621 11.604 15.6019 0.807112 -3.10661 -4.3227
188 1 11.6892 9.58103 15.6019 0.807114 -3.10661 -4.32271
189 1 13.7122 9.58103 13.5789 0.807114 -3.10661 -4.3227
190 1 15.7352 11.604 13.5789 0.80711 -3.10661 -4.3227
191 1 13.7122 11.604 15.6019 0.807107 -3.10661 -4.32271
192 1 15.7352 9.58103 15.6019 0.807107 -3.10661 -4.3227
193 1 1.57421 13.627 1.44085 0.807108 -3.10662 -4.32271
194 1 3.59721 15.65 1.44085 0.807111 -3.10661 -4.3227
195 1 1.57421 15.65 3.46385 0.807109 -3.10662 -4.3227
196 1 3.59721 13.627 3.46385 0.80711 -3.10662 -4.3227
197 1 5.62021 13.627 1.44085 0.807113 -3.10661 -4.3227
198 1 7.64321 15.65 1.44085 0.807117 -3.10662 -4.32271
199 1 5.62021 15.65 3.46385 0.807116 -3.10661 -4.32271
200 1 7.64321 13.627 3.46385 0.80711 -3.10662 -4.3227
201 1 9.66621 13.627 1.44085 0.807111 -3.10661 -4.3227
202 1 11.6892 15.65 1.44085 0.80711 -3.10661 -4.3227
203 1 9.66621 15.65 3.46385 0.807112 -3.10662 -4.3227
204 1 11.6892 13.627 3.46385 0.807111 -3.10661 -4.3227
205 1 13.7122 13.627 1.44085 0.80711 -3.10662 -4.3227
206 1 15.7352 15.65 1.44085 0.807104 -3.10661 -4.3227
207 1 13.7122 15.65 3.46385 0.807108 -3.10661 -4.3227
208 1 15.7352 13.627 3.46385 0.80711 -3.10661 -4.3227
209 1 1.57421 1.48903 1.44085 0.807116 -3.10661 -4.32271
210 1 3.59721 3.51203 1.44085 0.807106 -3.10662 -4.32271
211 1 1.57421 3.51203 3.46385 0.807113 -3.10662 -4.3227
212 1 3.59721 1.48903 3.46385 0.807114 -3.10662 -4.3227
213 1 5.62021 1.48903 1.44085 0.807114 -3.10662 -4.3227
214 1 7.64321 3.51203 1.44085 0.807117 -3.10661 -4.3227
215 1 5.62021 3.51203 3.46385 0.807113 -3.10661 -4.3227
216 1 7.64321 1.48903 3.46385 0.807107 -3.10662 -4.3227
217 1 9.66621 1.48903 1.44085 0.807109 -3.10662 -4.32271
218 1 11.6892 3.51203 1.44085 0.807104 -3.10662 -4.32271
219 1 9.66621 3.51203 3.46385 0.807107 -3.10661 -4.3227
220 1 11.6892 1.48903 3.46385 0.807115 -3.10662 -4.32271
221 1 13.7122 1.48903 1.44085 0.807111 -3.10661 -4.3227
222 1 15.7352 3.51203 1.44085 0.807108 -3.10661 -4.3227
223 1 13.7122 3.51203 3.46385 0.807111 -3.10662 -4.32271
224 1 15.7352 1.48903 3.46385 0.807111 -3.10661 -4.3227
225 1 1.57421 5.53503 1.44085 0.807109 -3.10661 -4.3227
226 1 3.59721 7.55803 1.44085 0.80711 -3.10662 -4.3227
227 1 1.57421 7.55803 3.46385 0.80711 -3.10662 -4.32271
228 1 3.59721 5.53503 3.46385 0.807103 -3.10662 -4.32271
229 1 5.62021 5.53503 1.44085 0.807106 -3.10661 -4.32271
230 1 7.64321 7.55803 1.44085 0.807104 -3.10661 -4.3227
231 1 5.62021 7.55803 3.46385 0.807107 -3.10662 -4.3227
232 1 7.64321 5.53503 3.46385 0.807111 -3.10662 -4.3227
233 1 9.66621 5.53503 1.44085 0.807112 -3.10662 -4.32271
234 1 11.6892 7.55803 1.44085 0.807105 -3.10661 -4.3227
235 1 9.66621 7.55803 3.46385 0.807108 -3.10662 -4.3227
236 1 11.6892 5.53503 3.46385 0.807107 -3.10662 -4.32271
237 1 13.7122 5.53503 1.44085 0.807112 -3.10662 -4.32271
238 1 15.7352 7.55803 1.44085 0.807108 -3.10661 -4.3227
239 1 13.7122 7.55803 3.46385 0.80711 -3.10661 -4.32271
240 1 15.7352 5.53503 3.46385 0.807109 -3.10661 -4.3227
241 1 1.57421 9.58103 1.44085 0.807106 -3.10661 -4.3227
242 1 3.59721 11.604 1.44085 0.807109 -3.1066 -4.32269
243 1 1.57421 11.604 3.46385 0.80711 -3.10661 -4.3227
244 1 3.59721 9.58103 3.46385 0.807103 -3.10662 -4.32271
245 1 5.62021 9.58103 1.44085 0.807112 -3.10661 -4.3227
246 1 7.64321 11.604 1.44085 0.807112 -3.10662 -4.3227
247 1 5.62021 11.604 3.46385 0.807115 -3.10662 -4.32269
248 1 7.64321 9.58103 3.46385 0.807109 -3.10662 -4.3227
249 1 9.66621 9.58103 1.44085 0.807109 -3.10661 -4.3227
250 1 11.6892 11.604 1.44085 0.807115 -3.10661 -4.3227
251 1 9.66621 11.604 3.46385 0.807115 -3.10661 -4.3227
252 1 11.6892 9.58103 3.46385 0.80711 -3.10661 -4.3227
253 1 13.7122 9.58103 1.44085 0.807109 -3.10661 -4.3227
254 1 15.7352 11.604 1.44085 0.807114 -3.10662 -4.3227
255 1 13.7122 11.604 3.46385 0.807109 -3.10661 -4.3227
256 1 15.7352 9.58103 3.46385 0.807109 -3.10662 -4.32271
