ITEM: TIMESTEP
132000000
ITEM: NUMBER OF ATOMS
256
ITEM: BOX BOUNDS pp pp pp
0.0000000000000000e+00 1.6184000000000001e+01
0.0000000000000000e+00 1.6184000000000001e+01
0.0000000000000000e+00 1.6184000000000001e+01
ITEM: ATOMS id type x y z vx vy vz
1 1 9.03941 9.43464 2.9141 0.810604 -3.12006 -4.34141
2 1 11.0624 11.4576 2.9141 0.810603 -3.12006 -4.34141
3 1 9.03941 11.4576 4.9371 0.810607 -3.12006 -4.34141
4 1 11.0624 9.43464 4.9371 0.810596 -3.12006 -4.34141
5 1 13.0854 9.43464 2.9141 0.810596 -3.12006 -4.34142
6 1 15.1084 11.4576 2.9141 0.810601 -3.12006 -4.34141
7 1 13.0854 11.4576 4.9371 0.810601 -3.12007 -4.34141
8 1 15.1084 9.43464 4.9371 0.810603 -3.12006 -4.3414
9 1 0.947407 9.43464 2.9141 0.810603 -3.12006 -4.34141
10 1 2.97041 11.4576 2.9141 0.810607 -3.12006 -4.34141
11 1 0.947407 11.4576 4.9371 0.810601 -3.12006 -4.34141
12 1 2.97041 9.43464 4.9371 0.810605 -3.12006 -4.34142
13 1 4.99341 9.43464 2.9141 0.810602 -3.12007 -4.34141
14 1 7.01641 11.4576 2.9141 0.810601 -3.12006 -4.34141
15 1 4.99341 11.4576 4.9371 0.810605 -3.12006 -4.34141
16 1 7.01641 9.43464 4.9371 0.810601 -3.12006 -4.34141
17 1 9.03941 13.4806 2.9141 0.810601 -3.12006 -4.34141
18 1 11.0624 15.5036 2.9141 0.810604 -3.12006 -4.34142
19 1 9.03941 15.5036 4.9371 0.810602 -3.12006 -4.34141
20 1 11.0624 13.4806 4.9371 0.810599 -3.12006 -4.34141
21 1 13.0854 13.4806 2.9141 0.810606 -3.12006 -4.34141
22 1 15.1084 15.5036 2.9141 0.810603 -3.12006 -4.34141
23 1 13.0854 15.5036 4.9371 0.810601 -3.12006 -4.34141
24 1 15.1084 13.4806 4.9371 0.810603 -3.12006 -4.34141
25 1 0.947407 13.4806 2.9141 0.810608 -3.12006 -4.34141
26 1 2.97041 15.5036 2.9141 0.8106 -3.12006 -4.34142
27 1 0.947407 15.5036 4.9371 0.810607 -3.12006 -4.34141
28 1 2.97041 13.4806 4.9371 0.810611 -3.12006 -4.34141
29 1 4.99341 13.4806 2.9141 0.810598 -3.12006 -4.34142
30 1 7.01641 15.5036 2.9141 0.810601 -3.12005 -4.34142
31 1 4.99341 15.5036 4.9371 0.810602 -3.12006 -4.34142
32 1 7.01641 13.4806 4.9371 0.810601 -3.12005 -4.34141
33 1 9.03941 1.34264 2.9141 0.810603 -3.12006 -4.34142
34 1 11.0624 3.36564 2.9141 0.810602 -3.12006 -4.34141
35 1 9.03941 3.36564 4.9371 0.8106 -3.12006 -4.34141
36 1 11.0624 1.34264 4.9371 0.810601 -3.12006 -4.34141
37 1 13.0854 1.34264 2.9141 0.810602 -3.12007 -4.34141
38 1 15.1084 3.36564 2.9141 0.810601 -3.12006 -4.34141
39 1 13.0854 3.36564 4.9371 0.810599 -3.12006 -4.34141
40 1 15.1084 1.34264 4.9371 0.8106 -3.12006 -4.34141
41 1 0.947407 1.34264 2.9141 0.810597 -3.12006 -4.34141
42 1 2.97041 3.36564 2.9141 0.810604 -3.12007 -4.34142
43 1 0.947407 3.36564 4.9371 0.810595 -3.12006 -4.34141
44 1 2.97041 1.34264 4.9371 0.810605 -3.12006 -4.34141
45 1 4.99341 1.34264 2.9141 0.810597 -3.12006 -4.34141
46 1 7.01641 3.36564 2.9141 0.810598 -3.12006 -4.34142
47 1 4.99341 3.36564 4.9371 0.810598 -3.12006 -4.34142
48 1 7.01641 1.34264 4.9371 0.810605 -3.12006 -4.34142
49 1 9.03941 5.38864 2.9141 0.810607 -3.12006 -4.34142
50 1 11.0624 7.41164 2.9141 0.810606 -3.12006 -4.34141
51 1 9.03941 7.41164 4.9371 0.810603 -3.12006 -4.34141
52 1 11.0624 5.38864 4.9371 0.810601 -3.12006 -4.34141
53 1 13.0854 5.38864 2.9141 0.8106 -3.12006 -4.34141
54 1 15.1084 7.41164 2.9141 0.810602 -3.12006 -4.3414
55 1 13.0854 7.41164 4.9371 0.810599 -3.12006 -4.34141
56 1 15.1084 5.38864 4.9371 0.8106 -3.12006 -4.34141
57 1 0.947406 5.38864 2.9141 0.810596 -3.12006 -4.34141
58 1 2.97041 7.41164 2.9141 0.810601 -3.12006 -4.34141
59 1 0.947407 7.41164 4.9371 0.810598 -3.12006 -4.34141
60 1 2.97041 5.38864 4.9371 0.810602 -3.12006 -4.34141
61 1 4.99341 5.38864 2.9141 0.810604 -3.12007 -4.34141
62 1 7.01641 7.41164 2.9141 0.810602 -3.12005 -4.34142
63 1 4.99341 7.41164 4.9371 0.810609 -3.12006 -4.34142
64 1 7.01641 5.38864 4.9371 0.810604 -3.12005 -4.34141
65 1 9.03941 9.43464 6.9601 0.810601 -3.12006 -4.34142
66 1 11.0624 11.4576 6.9601 0.810602 -3.12006 -4.34141
67 1 9.03941 11.4576 8.9831 0.810613 -3.12005 -4.34141
68 1 11.0624 9.43464 8.9831 0.810604 -3.12006 -4.34141
69 1 13.0854 9.43464 6.9601 0.810602 -3.12005 -4.34141
70 1 15.1084 11.4576 6.9601 0.810605 -3.12006 -4.34141
71 1 13.0854 11.4576 8.9831 0.810605 -3.12007 -4.34141
72 1 15.1084 9.43464 8.9831 0.810604 -3.12006 -4.34141
73 1 0.947407 9.43464 6.9601 0.810602 -3.12006 -4.34141
74 1 2.97041 11.4576 6.9601 0.810607 -3.12006 -4.34141
75 1 0.947407 11.4576 8.9831 0.810607 -3.12006 -4.34141
76 1 2.97041 9.43464 8.9831 0.810603 -3.12006 -4.34141
77 1 4.99341 9.43464 6.9601 0.810601 -3.12006 -4.34141
78 1 7.01641 11.4576 6.9601 0.810597 -3.12006 -4.34141
79 1 4.99341 11.4576 8.9831 0.810601 -3.12006 -4.34141
80 1 7.01641 9.43464 8.9831 0.810609 -3.12006 -4.34141
81 1 9.03941 13.4806 6.9601 0.81061 -3.12006 -4.34141
82 1 11.0624 15.5036 6.9601 0.810607 -3.12005 -4.34142
83 1 9.03941 15.5036 8.9831 0.810609 -3.12006 -4.34141
84 1 11.0624 13.4806 8.9831 0.810605 -3.12006 -4.34141
85 1 13.0854 13.4806 6.9601 0.81061 -3.12006 -4.34141
86 1 15.1084 15.5036 6.9601 0.810603 -3.12006 -4.34141
87 1 13.0854 15.5036 8.9831 0.810603 -3.12006 -4.34142
88 1 15.1084 13.4806 8.9831 0.810607 -3.12007 -4.34141
89 1 0.947407 13.4806 6.9601 0.810601 -3.12006 -4.34142
90 1 2.97041 15.5036 6.9601 0.810601 -3.12006 -4.34141
91 1 0.947407 15.5036 8.9831 0.810603 -3.12006 -4.34141
92 1 2.97041 13.4806 8.9831 0.810604 -3.12006 -4.34141
93 1 4.99341 13.4806 6.9601 0.810608 -3.12006 -4.34141
94 1 7.01641 15.5036 6.9601 0.810601 -3.12005 -4.34142
95 1 4.99341 15.5036 8.9831 0.810602 -3.12006 -4.34142
96 1 7.01641 13.4806 8.9831 0.810606 -3.12005 -4.34141
97 1 9.03941 1.34264 6.9601 0.810607 -3.12005 -4.34142
98 1 11.0624 3.36564 6.9601 0.810599 -3.12006 -4.34141
99 1 9.03941 3.36564 8.9831 0.810608 -3.12006 -4.34141
100 1 11.0624 1.34264 8.9831 0.810599 -3.12006 -4.34142
101 1 13.0854 1.34264 6.9601 0.810599 -3.12006 -4.34141
102 1 15.1084 3.36564 6.9601 0.810595 -3.12006 -4.34141
103 1 13.0854 3.36564 8.9831 0.810599 -3.12006 -4.34141
104 1 15.1084 1.34264 8.9831 0.810604 -3.12006 -4.34141
105 1 0.947407 1.34264 6.9601 0.8106 -3.12006 -4.34141
106 1 2.97041 3.36564 6.9601 0.810601 -3.12006 -4.34142
107 1 0.947407 3.36564 8.9831 0.810603 -3.12006 -4.34141
108 1 2.97041 1.34264 8.9831 0.810605 -3.12006 -4.34142
109 1 4.99341 1.34264 6.9601 0.810607 -3.12006 -4.34141
110 1 7.01641 3.36564 6.9601 0.810604 -3.12006 -4.34142
111 1 4.99341 3.36564 8.9831 0.810604 -3.12006 -4.34141
112 1 7.01641 1.34264 8.9831 0.810602 -3.12005 -4.34141
113 1 9.03941 5.38864 6.9601 0.810602 -3.12006 -4.34141
114 1 11.0624 7.41164 6.9601 0.810601 -3.12006 -4.34141
115 1 9.03941 7.41164 8.9831 0.810603 -3.12006 -4.34141
116 1 11.0624 5.38864 8.9831 0.810604 -3.12006 -4.34141
117 1 13.0854 5.38864 6.9601 0.810602 -3.12006 -4.34141
118 1 15.1084 7.41164 6.9601 0.810606 -3.12007 -4.3414
119 1 13.0854 7.41164 8.9831 0.810601 -3.12006 -4.34141
120 1 15.1084 5.38864 8.9831 0.810609 -3.12006 -4.34141
121 1 0.947407 5.38864 6.9601 0.810596 -3.12006 -4.34141
122 1 2.97041 7.41164 6.9601 0.810602 -3.12006 -4.34141
123 1 0.947407 7.41164 8.9831 0.810612 -3.12006 -4.34141
124 1 2.97041 5.38864 8.9831 0.810603 -3.12006 -4.34141
125 1 4.99341 5.38864 6.9601 0.810604 -3.12006 -4.34141
126 1 7.01641 7.41164 6.9601 0.810609 -3.12006 -4.34141
127 1 4.99341 7.41164 8.9831 0.810604 -3.12005 -4.34141
128 1 7.01641 5.38864 8.9831 0.810607 -3.12006 -4.34141
129 1 9.03941 9.43464 11.0061 0.810615 -3.12005 -4.34141
130 1 11.0624 11.4576 11.0061 0.81061 -3.12006 -4.3414
131 1 9.03941 11.4576 13.0291 0.810606 -3.12006 -4.34141
132 1 11.0624 9.43464 13.0291 0.810606 -3.12006 -4.34141
133 1 13.0854 9.43464 11.0061 0.810603 -3.12006 -4.34141
134 1 15.1084 11.4576 11.0061 0.810602 -3.12006 -4.34141
135 1 13.0854 11.4576 13.0291 0.810605 -3.12006 -4.34141
136 1 15.1084 9.43464 13.0291 0.81061 -3.12006 -4.34141
137 1 0.947407 9.43464 11.0061 0.810606 -3.12006 -4.3414
138 1 2.97041 11.4576 11.0061 0.8106 -3.12006 -4.34141
139 1 0.947407 11.4576 13.0291 0.810604 -3.12007 -4.34141
140 1 2.97041 9.43464 13.0291 0.810605 -3.12006 -4.34141
141 1 4.99341 9.43464 11.0061 0.810605 -3.12006 -4.34141
142 1 7.01641 11.4576 11.0061 0.81061 -3.12006 -4.34141
143 1 4.99341 11.4576 13.0291 0.810604 -3.12006 -4.34141
144 1 7.01641 9.43464 13.0291 0.810605 -3.12006 -4.34141
145 1 9.03941 13.4806 11.0061 0.810608 -3.12006 -4.34141
146 1 11.0624 15.5036 11.0061 0.810604 -3.12005 -4.34142
147 1 9.03941 15.5036 13.0291 0.8106 -3.12006 -4.34141
148 1 11.0624 13.4806 13.0291 0.810602 -3.12006 -4.34141
149 1 13.0854 13.4806 11.0061 0.810607 -3.12006 -4.34141
150 1 15.1084 15.5036 11.0061 0.810604 -3.12006 -4.34141
151 1 13.0854 15.5036 13.0291 0.810608 -3.12007 -4.34141
152 1 15.1084 13.4806 13.0291 0.810603 -3.12006 -4.34142
153 1 0.947407 13.4806 11.0061 0.8106 -3.12006 -4.34141
154 1 2.97041 15.5036 11.0061 0.810603 -3.12006 -4.34142
155 1 0.947407 15.5036 13.0291 0.810605 -3.12007 -4.34142
156 1 2.97041 13.4806 13.0291 0.810606 -3.12006 -4.34141
157 1 4.99341 13.4806 11.0061 0.810611 -3.12006 -4.34141
158 1 7.01641 15.5036 11.0061 0.810607 -3.12006 -4.34142
159 1 4.99341 15.5036 13.0291 0.810607 -3.12006 -4.34141
160 1 7.01641 13.4806 13.0291 0.810603 -3.12006 -4.34141
161 1 9.03941 1.34264 11.0061 0.810606 -3.12006 -4.34141
162 1 11.0624 3.36564 11.0061 0.810604 -3.12006 -4.34141
163 1 9.03941 3.36564 13.0291 0.810603 -3.12006 -4.34142
164 1 11.0624 1.34264 13.0291 0.810602 -3.12006 -4.34141
165 1 13.0854 1.34264 11.0061 0.81061 -3.12006 -4.34141
166 1 15.1084 3.36564 11.0061 0.8106 -3.12006 -4.34141
167 1 13.0854 3.36564 13.0291 0.810602 -3.12006 -4.34141
168 1 15.1084 1.34264 13.0291 0.810603 -3.12006 -4.34142
169 1 0.947407 1.34264 11.0061 0.8106 -3.12006 -4.34141
170 1 2.97041 3.36564 11.0061 0.810604 -3.12006 -4.34142
171 1 0.947407 3.36564 13.0291 0.810603 -3.12006 -4.34141
172 1 2.97041 1.34264 13.0291 0.810604 -3.12006 -4.34142
173 1 4.99341 1.34264 11.0061 0.810606 -3.12006 -4.34142
174 1 7.01641 3.36564 11.0061 0.810603 -3.12006 -4.34141
175 1 4.99341 3.36564 13.0291 0.810607 -3.12006 -4.3414
176 1 7.01641 1.34264 13.0291 0.810597 -3.12006 -4.34142
177 1 9.03941 5.38864 11.0061 0.810598 -3.12006 -4.34142
178 1 11.0624 7.41164 11.0061 0.810605 -3.12006 -4.34141
179 1 9.03941 7.41164 13.0291 0.810605 -3.12006 -4.34141
180 1 11.0624 5.38864 13.0291 0.810601 -3.12006 -4.34141
181 1 13.0854 5.38864 11.0061 0.810601 -3.12006 -4.3414
182 1 15.1084 7.41164 11.0061 0.810608 -3.12006 -4.34141
183 1 13.0854 7.41164 13.0291 0.810603 -3.12006 -4.34141
184 1 15.1084 5.38864 13.0291 0.810609 -3.12006 -4.34141
185 1 0.947407 5.38864 11.0061 0.810607 -3.12006 -4.34141
186 1 2.97041 7.41164 11.0061 0.810606 -3.12006 -4.34141
187 1 0.947407 7.41164 13.0291 0.810606 -3.12006 -4.34141
188 1 2.97041 5.38864 13.0291 0.810602 -3.12006 -4.34141
189 1 4.99341 5.38864 11.0061 0.810604 -3.12006 -4.34141
190 1 7.01641 7.41164 11.0061 0.810599 -3.12005 -4.34141
191 1 4.99341 7.41164 13.0291 0.810601 -3.12005 -4.3414
192 1 7.01641 5.38864 13.0291 0.810602 -3.12005 -4.34141
193 1 9.03941 9.43464 15.0521 0.810609 -3.12006 -4.3414
194 1 11.0624 11.4576 15.0521 0.810603 -3.12006 -4.34141
195 1 9.03941 11.4576 0.891097 0.810597 -3.12006 -4.34141
196 1 11.0624 9.43464 0.891097 0.810605 -3.12006 -4.34142
197 1 13.0854 9.43464 15.0521 0.810606 -3.12006 -4.34141
198 1 15.1084 11.4576 15.0521 0.810605 -3.12007 -4.34141
199 1 13.0854 11.4576 0.891097 0.810603 -3.12006 -4.34142
200 1 15.1084 9.43464 0.891097 0.810608 -3.12006 -4.34141
201 1 0.947407 9.43464 15.0521 0.810606 -3.12006 -4.34141
202 1 2.97041 11.4576 15.0521 0.81061 -3.12006 -4.34141
203 1 0.947407 11.4576 0.891097 0.810599 -3.12006 -4.34141
204 1 2.97041 9.43464 0.891098 0.810602 -3.12006 -4.34141
205 1 4.99341 9.43464 15.0521 0.810604 -3.12006 -4.34141
206 1 7.01641 11.4576 15.0521 0.810612 -3.12006 -4.34141
207 1 4.99341 11.4576 0.891097 0.810611 -3.12005 -4.34142
208 1 7.01641 9.43464 0.891097 0.810607 -3.12005 -4.34141
209 1 9.03941 13.4806 15.0521 0.810603 -3.12006 -4.34141
210 1 11.0624 15.5036 15.0521 0.81061 -3.12006 -4.34141
211 1 9.03941 15.5036 0.891097 0.810599 -3.12006 -4.34142
212 1 11.0624 13.4806 0.891097 0.810604 -3.12006 -4.34141
213 1 13.0854 13.4806 15.0521 0.810603 -3.12006 -4.34141
214 1 15.1084 15.5036 15.0521 0.810603 -3.12006 -4.34141
215 1 13.0854 15.5036 0.891097 0.810609 -3.12006 -4.34141
216 1 15.1084 13.4806 0.891097 0.810602 -3.12006 -4.34141
217 1 0.947407 13.4806 15.0521 0.810606 -3.12006 -4.34141
218 1 2.97041 15.5036 15.0521 0.81061 -3.12006 -4.34141
219 1 0.947407 15.5036 0.891097 0.810603 -3.12006 -4.34142
220 1 2.97041 13.4806 0.891097 0.810602 -3.12006 -4.34142
221 1 4.99341 13.4806 15.0521 0.81061 -3.12005 -4.34141
222 1 7.01641 15.5036 15.0521 0.81061 -3.12006 -4.34141
223 1 4.99341 15.5036 0.891097 0.810603 -3.12006 -4.34142
224 1 7.01641 13.4806 0.891097 0.810598 -3.12006 -4.34141
225 1 9.03941 1.34264 15.0521 0.810598 -3.12006 -4.34141
226 1 11.0624 3.36564 15.0521 0.810609 -3.12006 -4.34141
227 1 9.03941 3.36564 0.891097 0.810601 -3.12006 -4.34142
228 1 11.0624 1.34264 0.891097 0.8106 -3.12006 -4.34142
229 1 13.0854 1.34264 15.0521 0.810607 -3.12006 -4.34142
230 1 15.1084 3.36564 15.0521 0.810607 -3.12006 -4.34142
231 1 13.0854 3.36564 0.891098 0.810606 -3.12006 -4.34141
232 1 15.1084 1.34264 0.891097 0.810609 -3.12006 -4.34142
233 1 0.947407 1.34264 15.0521 0.810599 -3.12006 -4.34141
234 1 2.97041 3.36564 15.0521 0.810603 -3.12007 -4.34142
235 1 0.947407 3.36564 0.891097 0.810594 -3.12006 -4.34141
236 1 2.97041 1.34264 0.891097 0.810596 -3.12006 -4.34142
237 1 4.99341 1.34264 15.0521 0.810599 -3.12006 -4.34141
238 1 7.01641 3.36564 15.0521 0.810596 -3.12006 -4.34142
239 1 4.99341 3.36564 0.891097 0.810592 -3.12006 -4.34141
240 1 7.01641 1.34264 0.891097 0.810602 -3.12006 -4.34141
241 1 9.03941 5.38864 15.0521 0.810602 -3.12006 -4.34141
242 1 11.0624 7.41164 15.0521 0.8106 -3.12007 -4.34141
243 1 9.03941 7.41164 0.891097 0.810603 -3.12006 -4.34141
244 1 11.0624 5.38864 0.891097 0.810608 -3.12006 -4.3414
245 1 13.0854 5.38864 15.0521 0.810603 -3.12006 -4.34141
246 1 15.1084 7.41164 15.0521 0.810605 -3.12006 -4.34141
247 1 13.0854 7.41164 0.891097 0.810602 -3.12006 -4.34141
248 1 15.1084 5.38864 0.891097 0.8106 -3.12006 -4.34141
249 1 0.947407 5.38864 15.0521 0.810606 -3.12006 -4.34141
250 1 2.97041 7.41164 15.0521 0.810604 -3.12005 -4.3414
251 1 0.947407 7.41164 0.891097 0.810603 -3.12006 -4.34141
252 1 2.97041 5.38864 0.891098 0.810603 -3.12006 -4.34141
253 1 4.99341 5.38864 15.0521 0.810604 -3.12006 -4.34141
254 1 7.01641 7.41164 15.0521 0.810598 -3.12006 -4.34141
255 1 4.99341 7.41164 0.891097 0.810611 -3.12006 -4.34141
256 1 7.01641 5.38864 0.891097 0.810599 -3.12006 -4.34141
