ITEM: TIMESTEP
102000000
ITEM: NUMBER OF ATOMS
256
ITEM: BOX BOUNDS pp pp pp
0.0000000000000000e+00 1.6184000000000001e+01
0.0000000000000000e+00 1.6184000000000001e+01
0.0000000000000000e+00 1.6184000000000001e+01
ITEM: ATOMS id type x y z vx vy vz
1 1 9.24794 9.64302 11.3301 0.793703 -3.05502 -4.25091
2 1 11.2709 11.666 11.3301 0.793705 -3.05502 -4.25091
3 1 9.24794 11.666 13.3531 0.793708 -3.05502 -4.25091
4 1 11.2709 9.64302 13.3531 0.793708 -3.05502 -4.2509
5 1 13.2939 9.64302 11.3301 0.793703 -3.05502 -4.25091
6 1 15.3169 11.666 11.3301 0.793702 -3.05502 -4.25091
7 1 13.2939 11.666 13.3531 0.793705 -3.05502 -4.2509
8 1 15.3169 9.64302 13.3531 0.793705 -3.05502 -4.2509
9 1 1.15594 9.64302 11.3301 0.793706 -3.05502 -4.2509
10 1 3.17894 11.666 11.3301 0.793702 -3.05502 -4.2509
11 1 1.15594 11.666 13.3531 0.793702 -3.05502 -4.25091
12 1 3.17894 9.64302 13.3531 0.793702 -3.05502 -4.2509
13 1 5.20194 9.64302 11.3301 0.793699 -3.05502 -4.2509
14 1 7.22494 11.666 11.3301 0.793707 -3.05502 -4.2509
15 1 5.20194 11.666 13.3531 0.793705 -3.05502 -4.25091
16 1 7.22494 9.64302 13.3531 0.793699 -3.05501 -4.25091
17 1 9.24794 13.689 11.3301 0.793705 -3.05502 -4.2509
18 1 11.2709 15.712 11.3301 0.793697 -3.05501 -4.25091
19 1 9.24794 15.712 13.3531 0.793703 -3.05502 -4.25091
20 1 11.2709 13.689 13.3531 0.79371 -3.05502 -4.2509
21 1 13.2939 13.689 11.3301 0.793708 -3.05502 -4.25091
22 1 15.3169 15.712 11.3301 0.793697 -3.05502 -4.25091
23 1 13.2939 15.712 13.3531 0.793703 -3.05502 -4.25091
24 1 15.3169 13.689 13.3531 0.793701 -3.05502 -4.25091
25 1 1.15594 13.689 11.3301 0.793713 -3.05502 -4.25091
26 1 3.17894 15.712 11.3301 0.793702 -3.05502 -4.25092
27 1 1.15594 15.712 13.3531 0.793704 -3.05501 -4.25091
28 1 3.17894 13.689 13.3531 0.793708 -3.05502 -4.25091
29 1 5.20194 13.689 11.3301 0.7937 -3.05501 -4.25091
30 1 7.22494 15.712 11.3301 0.793711 -3.05501 -4.25091
31 1 5.20194 15.712 13.3531 0.793701 -3.05502 -4.25091
32 1 7.22494 13.689 13.3531 0.793703 -3.05501 -4.25091
33 1 9.24794 1.55102 11.3301 0.793703 -3.05501 -4.25091
34 1 11.2709 3.57402 11.3301 0.793698 -3.05501 -4.2509
35 1 9.24794 3.57402 13.3531 0.793699 -3.05501 -4.25091
36 1 11.2709 1.55102 13.3531 0.793703 -3.05502 -4.2509
37 1 13.2939 1.55102 11.3301 0.793701 -3.05501 -4.25091
38 1 15.3169 3.57402 11.3301 0.7937 -3.05502 -4.25091
39 1 13.2939 3.57402 13.3531 0.793705 -3.05502 -4.25091
40 1 15.3169 1.55102 13.3531 0.793703 -3.05502 -4.25091
41 1 1.15594 1.55102 11.3301 0.793709 -3.05501 -4.25091
42 1 3.17894 3.57402 11.3301 0.793705 -3.05502 -4.25091
43 1 1.15594 3.57402 13.3531 0.793706 -3.05502 -4.25091
44 1 3.17894 1.55102 13.3531 0.793709 -3.05502 -4.25091
45 1 5.20194 1.55102 11.3301 0.793706 -3.05502 -4.25091
46 1 7.22494 3.57402 11.3301 0.793702 -3.05501 -4.25091
47 1 5.20194 3.57402 13.3531 0.793702 -3.05501 -4.25091
48 1 7.22494 1.55102 13.3531 0.793699 -3.05502 -4.25091
49 1 9.24794 5.59702 11.3301 0.793703 -3.05501 -4.25091
50 1 11.2709 7.62002 11.3301 0.793702 -3.05502 -4.25091
51 1 9.24794 7.62002 13.3531 0.793702 -3.05501 -4.2509
52 1 11.2709 5.59702 13.3531 0.793702 -3.05502 -4.25091
53 1 13.2939 5.59702 11.3301 0.793707 -3.05502 -4.25091
54 1 15.3169 7.62002 11.3301 0.793708 -3.05502 -4.25091
55 1 13.2939 7.62002 13.3531 0.793709 -3.05501 -4.25091
56 1 15.3169 5.59702 13.3531 0.793701 -3.05502 -4.25091
57 1 1.15594 5.59702 11.3301 0.793708 -3.05502 -4.25091
58 1 3.17894 7.62002 11.3301 0.793699 -3.05502 -4.25091
59 1 1.15594 7.62002 13.3531 0.793709 -3.05502 -4.2509
60 1 3.17894 5.59702 13.3531 0.793695 -3.05501 -4.2509
61 1 5.20194 5.59702 11.3301 0.7937 -3.05502 -4.2509
62 1 7.22494 7.62002 11.3301 0.793702 -3.05501 -4.25091
63 1 5.20194 7.62002 13.3531 0.793702 -3.055 -4.25091
64 1 7.22494 5.59702 13.3531 0.793698 -3.05501 -4.25091
65 1 9.24794 9.64302 15.3761 0.793702 -3.05501 -4.2509
66 1 11.2709 11.666 15.3761 0.79371 -3.05501 -4.25091
67 1 9.24794 11.666 1.2151 0.793706 -3.05501 -4.25091
68 1 11.2709 9.64302 1.2151 0.793694 -3.05502 -4.2509
69 1 13.2939 9.64302 15.3761 0.793706 -3.05501 -4.25091
70 1 15.3169 11.666 15.3761 0.793703 -3.05502 -4.25091
71 1 13.2939 11.666 1.2151 0.793707 -3.05501 -4.2509
72 1 15.3169 9.64302 1.2151 0.793712 -3.05502 -4.25091
73 1 1.15594 9.64302 15.3761 0.793708 -3.05502 -4.25091
74 1 3.17894 11.666 15.3761 0.793707 -3.05502 -4.2509
75 1 1.15594 11.666 1.2151 0.793712 -3.05501 -4.25091
76 1 3.17894 9.64302 1.2151 0.793707 -3.05502 -4.25091
77 1 5.20194 9.64302 15.3761 0.793705 -3.05502 -4.25091
78 1 7.22494 11.666 15.3761 0.793705 -3.05501 -4.25091
79 1 5.20194 11.666 1.2151 0.793708 -3.05501 -4.25091
80 1 7.22494 9.64302 1.2151 0.793712 -3.05501 -4.2509
81 1 9.24794 13.689 15.3761 0.793706 -3.05502 -4.25091
82 1 11.2709 15.712 15.3761 0.793703 -3.05502 -4.2509
83 1 9.24794 15.712 1.2151 0.793697 -3.05501 -4.25091
84 1 11.2709 13.689 1.2151 0.793704 -3.05502 -4.2509
85 1 13.2939 13.689 15.3761 0.793705 -3.05501 -4.2509
86 1 15.3169 15.712 15.3761 0.79371 -3.05502 -4.25091
87 1 13.2939 15.712 1.2151 0.793699 -3.05502 -4.25091
88 1 15.3169 13.689 1.2151 0.793711 -3.05502 -4.25091
89 1 1.15594 13.689 15.3761 0.7937 -3.05501 -4.25092
90 1 3.17894 15.712 15.3761 0.793701 -3.05502 -4.25091
91 1 1.15594 15.712 1.2151 0.793704 -3.05501 -4.25091
92 1 3.17894 13.689 1.2151 0.793711 -3.05502 -4.2509
93 1 5.20194 13.689 15.3761 0.793709 -3.05502 -4.25091
94 1 7.22494 15.712 15.3761 0.793708 -3.05501 -4.25091
95 1 5.20194 15.712 1.2151 0.7937 -3.05501 -4.25092
96 1 7.22494 13.689 1.2151 0.793709 -3.05502 -4.25091
97 1 9.24794 1.55102 15.3761 0.793702 -3.05501 -4.25091
98 1 11.2709 3.57402 15.3761 0.7937 -3.05501 -4.25091
99 1 9.24794 3.57402 1.2151 0.793705 -3.05502 -4.25091
100 1 11.2709 1.55102 1.2151 0.793702 -3.05502 -4.25091
101 1 13.2939 1.55102 15.3761 0.793713 -3.05502 -4.25091
102 1 15.3169 3.57402 15.3761 0.793704 -3.05502 -4.25091
103 1 13.2939 3.57402 1.2151 0.793703 -3.05502 -4.25091
104 1 15.3169 1.55102 1.2151 0.793707 -3.05502 -4.25091
105 1 1.15594 1.55102 15.3761 0.793707 -3.05502 -4.25091
106 1 3.17894 3.57402 15.3761 0.793703 -3.05502 -4.25091
107 1 1.15594 3.57402 1.2151 0.793708 -3.05502 -4.2509
108 1 3.17894 1.55102 1.2151 0.793705 -3.05501 -4.25091
109 1 5.20194 1.55102 15.3761 0.793705 -3.05502 -4.25091
110 1 7.22494 3.57402 15.3761 0.7937 -3.05502 -4.2509
111 1 5.20194 3.57402 1.2151 0.793702 -3.05501 -4.25091
112 1 7.22494 1.55102 1.2151 0.793703 -3.05501 -4.25091
113 1 9.24794 5.59702 15.3761 0.793705 -3.05502 -4.25091
114 1 11.2709 7.62002 15.3761 0.793708 -3.05502 -4.2509
115 1 9.24794 7.62002 1.2151 0.793705 -3.05501 -4.2509
116 1 11.2709 5.59702 1.2151 0.793711 -3.05501 -4.25091
117 1 13.2939 5.59702 15.3761 0.793708 -3.05502 -4.25091
118 1 15.3169 7.62002 15.3761 0.793706 -3.05502 -4.2509
119 1 13.2939 7.62002 1.2151 0.793701 -3.05502 -4.25091
120 1 15.3169 5.59702 1.2151 0.793705 -3.05502 -4.2509
121 1 1.15594 5.59702 15.3761 0.793701 -3.05502 -4.2509
122 1 3.17894 7.62002 15.3761 0.793702 -3.05501 -4.2509
123 1 1.15594 7.62002 1.2151 0.793703 -3.05501 -4.2509
124 1 3.17894 5.59702 1.2151 0.793701 -3.05501 -4.25091
125 1 5.20194 5.59702 15.3761 0.793696 -3.05501 -4.25091
126 1 7.22494 7.62002 15.3761 0.793704 -3.05501 -4.2509
127 1 5.20194 7.62002 1.2151 0.793709 -3.05501 -4.25091
128 1 7.22494 5.59702 1.2151 0.793703 -3.05501 -4.25091
129 1 9.24794 9.64302 3.2381 0.793708 -3.05502 -4.25091
130 1 11.2709 11.666 3.2381 0.793703 -3.05502 -4.25091
131 1 9.24794 11.666 5.2611 0.793706 -3.05502 -4.25091
132 1 11.2709 9.64302 5.2611 0.793715 -3.05501 -4.2509
133 1 13.2939 9.64302 3.2381 0.793709 -3.05502 -4.2509
134 1 15.3169 11.666 3.2381 0.793713 -3.05501 -4.2509
135 1 13.2939 11.666 5.2611 0.793711 -3.05502 -4.2509
136 1 15.3169 9.64302 5.2611 0.793704 -3.05502 -4.2509
137 1 1.15594 9.64302 3.2381 0.793707 -3.05502 -4.25091
138 1 3.17894 11.666 3.2381 0.793708 -3.05501 -4.25091
139 1 1.15594 11.666 5.2611 0.793711 -3.05503 -4.25091
140 1 3.17894 9.64302 5.2611 0.793711 -3.05502 -4.2509
141 1 5.20194 9.64302 3.2381 0.793711 -3.05501 -4.2509
142 1 7.22494 11.666 3.2381 0.793711 -3.05502 -4.25091
143 1 5.20194 11.666 5.2611 0.793709 -3.05502 -4.25091
144 1 7.22494 9.64302 5.2611 0.793708 -3.05502 -4.2509
145 1 9.24794 13.689 3.2381 0.793709 -3.05502 -4.25091
146 1 11.2709 15.712 3.2381 0.793708 -3.05502 -4.25091
147 1 9.24794 15.712 5.2611 0.793703 -3.05501 -4.25091
148 1 11.2709 13.689 5.2611 0.793709 -3.05501 -4.25092
149 1 13.2939 13.689 3.2381 0.793712 -3.05502 -4.25091
150 1 15.3169 15.712 3.2381 0.793707 -3.05502 -4.25091
151 1 13.2939 15.712 5.2611 0.79371 -3.05502 -4.25091
152 1 15.3169 13.689 5.2611 0.793704 -3.05502 -4.2509
153 1 1.15594 13.689 3.2381 0.793714 -3.05502 -4.25091
154 1 3.17894 15.712 3.2381 0.793711 -3.05501 -4.25091
155 1 1.15594 15.712 5.2611 0.793709 -3.05502 -4.2509
156 1 3.17894 13.689 5.2611 0.793707 -3.05501 -4.25091
157 1 5.20194 13.689 3.2381 0.793703 -3.05501 -4.25091
158 1 7.22494 15.712 3.2381 0.793705 -3.05502 -4.25092
159 1 5.20194 15.712 5.2611 0.793703 -3.05501 -4.25092
160 1 7.22494 13.689 5.2611 0.793706 -3.05501 -4.2509
161 1 9.24794 1.55102 3.2381 0.793705 -3.05502 -4.25091
162 1 11.2709 3.57402 3.2381 0.793708 -3.05501 -4.25091
163 1 9.24794 3.57402 5.2611 0.793711 -3.05502 -4.25091
164 1 11.2709 1.55102 5.2611 0.793701 -3.05501 -4.25091
165 1 13.2939 1.55102 3.2381 0.793703 -3.05502 -4.25091
166 1 15.3169 3.57402 3.2381 0.793707 -3.05502 -4.2509
167 1 13.2939 3.57402 5.2611 0.793704 -3.05502 -4.2509
168 1 15.3169 1.55102 5.2611 0.793702 -3.05502 -4.25091
169 1 1.15594 1.55102 3.2381 0.793705 -3.05502 -4.25091
170 1 3.17894 3.57402 3.2381 0.793702 -3.05501 -4.25091
171 1 1.15594 3.57402 5.2611 0.793705 -3.05502 -4.2509
172 1 3.17894 1.55102 5.2611 0.793708 -3.05501 -4.25091
173 1 5.20194 1.55102 3.2381 0.793705 -3.05501 -4.25091
174 1 7.22494 3.57402 3.2381 0.79371 -3.05502 -4.25091
175 1 5.20194 3.57402 5.2611 0.793708 -3.05501 -4.25091
176 1 7.22494 1.55102 5.2611 0.793705 -3.05501 -4.25091
177 1 9.24794 5.59702 3.2381 0.7937 -3.05502 -4.25091
178 1 11.2709 7.62002 3.2381 0.793708 -3.05502 -4.2509
179 1 9.24794 7.62002 5.2611 0.793705 -3.05501 -4.25091
180 1 11.2709 5.59702 5.2611 0.79371 -3.05502 -4.25091
181 1 13.2939 5.59702 3.2381 0.793708 -3.05502 -4.25091
182 1 15.3169 7.62002 3.2381 0.793704 -3.05502 -4.2509
183 1 13.2939 7.62002 5.2611 0.793707 -3.05502 -4.2509
184 1 15.3169 5.59702 5.2611 0.793702 -3.05502 -4.25089
185 1 1.15594 5.59702 3.2381 0.793703 -3.05503 -4.25091
186 1 3.17894 7.62002 3.2381 0.793707 -3.05502 -4.2509
187 1 1.15594 7.62002 5.2611 0.793704 -3.05502 -4.25091
188 1 3.17894 5.59702 5.2611 0.793705 -3.05502 -4.25091
189 1 5.20194 5.59702 3.2381 0.793704 -3.05501 -4.25091
190 1 7.22494 7.62002 3.2381 0.793709 -3.05502 -4.25091
191 1 5.20194 7.62002 5.2611 0.793707 -3.05502 -4.2509
192 1 7.22494 5.59702 5.2611 0.793709 -3.05501 -4.25091
193 1 9.24794 9.64302 7.2841 0.793704 -3.05502 -4.2509
194 1 11.2709 11.666 7.2841 0.793716 -3.05502 -4.25091
195 1 9.24794 11.666 9.3071 0.793707 -3.05502 -4.25091
196 1 11.2709 9.64302 9.3071 0.793709 -3.05501 -4.25091
197 1 13.2939 9.64302 7.2841 0.793705 -3.05502 -4.2509
198 1 15.3169 11.666 7.2841 0.79371 -3.05502 -4.2509
199 1 13.2939 11.666 9.3071 0.793706 -3.05502 -4.25091
200 1 15.3169 9.64302 9.3071 0.793712 -3.05502 -4.2509
201 1 1.15594 9.64302 7.2841 0.793708 -3.05502 -4.2509
202 1 3.17894 11.666 7.2841 0.793704 -3.05502 -4.25091
203 1 1.15594 11.666 9.3071 0.793701 -3.05502 -4.2509
204 1 3.17894 9.64302 9.3071 0.793707 -3.05502 -4.25091
205 1 5.20194 9.64302 7.2841 0.793706 -3.05502 -4.25091
206 1 7.22494 11.666 7.2841 0.793705 -3.05502 -4.25091
207 1 5.20194 11.666 9.3071 0.793707 -3.05501 -4.25091
208 1 7.22494 9.64302 9.3071 0.793704 -3.05501 -4.2509
209 1 9.24794 13.689 7.2841 0.793703 -3.05501 -4.2509
210 1 11.2709 15.712 7.2841 0.793705 -3.05502 -4.25091
211 1 9.24794 15.712 9.3071 0.793704 -3.05502 -4.25091
212 1 11.2709 13.689 9.3071 0.793701 -3.05502 -4.25091
213 1 13.2939 13.689 7.2841 0.793707 -3.05502 -4.25091
214 1 15.3169 15.712 7.2841 0.793701 -3.05502 -4.25091
215 1 13.2939 15.712 9.3071 0.793711 -3.05501 -4.2509
216 1 15.3169 13.689 9.3071 0.7937 -3.05501 -4.25091
217 1 1.15594 13.689 7.2841 0.793709 -3.05502 -4.25091
218 1 3.17894 15.712 7.2841 0.793705 -3.05502 -4.25091
219 1 1.15594 15.712 9.3071 0.793705 -3.05502 -4.25091
220 1 3.17894 13.689 9.3071 0.7937 -3.05502 -4.25091
221 1 5.20194 13.689 7.2841 0.793708 -3.05501 -4.25091
222 1 7.22494 15.712 7.2841 0.793712 -3.05501 -4.25091
223 1 5.20194 15.712 9.3071 0.793706 -3.05502 -4.25091
224 1 7.22494 13.689 9.3071 0.793704 -3.05502 -4.25091
225 1 9.24794 1.55102 7.2841 0.7937 -3.05501 -4.25091
226 1 11.2709 3.57402 7.2841 0.793708 -3.05501 -4.25091
227 1 9.24794 3.57402 9.3071 0.793699 -3.05502 -4.25091
228 1 11.2709 1.55102 9.3071 0.7937 -3.05502 -4.25091
229 1 13.2939 1.55102 7.2841 0.793701 -3.05502 -4.25091
230 1 15.3169 3.57402 7.2841 0.793703 -3.05502 -4.25091
231 1 13.2939 3.57402 9.3071 0.793696 -3.05502 -4.25091
232 1 15.3169 1.55102 9.3071 0.793698 -3.05502 -4.25091
233 1 1.15594 1.55102 7.2841 0.793701 -3.05501 -4.25091
234 1 3.17894 3.57402 7.2841 0.793706 -3.05502 -4.25091
235 1 1.15594 3.57402 9.3071 0.793704 -3.05502 -4.2509
236 1 3.17894 1.55102 9.3071 0.793705 -3.05501 -4.25091
237 1 5.20194 1.55102 7.2841 0.793708 -3.05502 -4.25091
238 1 7.22494 3.57402 7.2841 0.793705 -3.05501 -4.25092
239 1 5.20194 3.57402 9.3071 0.79371 -3.05501 -4.25091
240 1 7.22494 1.55102 9.3071 0.793705 -3.05501 -4.25091
241 1 9.24794 5.59702 7.2841 0.793708 -3.05502 -4.25091
242 1 11.2709 7.62002 7.2841 0.793703 -3.05502 -4.2509
243 1 9.24794 7.62002 9.3071 0.793703 -3.05502 -4.25091
244 1 11.2709 5.59702 9.3071 0.793702 -3.05502 -4.2509
245 1 13.2939 5.59702 7.2841 0.793702 -3.05502 -4.2509
246 1 15.3169 7.62002 7.2841 0.793702 -3.05502 -4.2509
247 1 13.2939 7.62002 9.3071 0.7937 -3.05502 -4.2509
248 1 15.3169 5.59702 9.3071 0.793699 -3.05502 -4.2509
249 1 1.15594 5.59702 7.2841 0.793697 -3.05502 -4.2509
250 1 3.17894 7.62002 7.2841 0.793702 -3.05502 -4.2509
251 1 1.15594 7.62002 9.3071 0.793703 -3.05502 -4.2509
252 1 3.17894 5.59702 9.3071 0.793704 -3.05501 -4.25091
253 1 5.20194 5.59702 7.2841 0.793702 -3.05502 -4.25091
254 1 7.22494 7.62002 7.2841 0.793705 -3.05502 -4.25091
255 1 5.20194 7.62002 9.3071 0.793712 -3.05502 -4.25091
256 1 7.22494 5.59702 9.3071 0.793702 -3.05501 -4.25091
