ITEM: TIMESTEP
180000000
ITEM: NUMBER OF ATOMS
256
ITEM: BOX BOUNDS pp pp pp
0.0000000000000000e+00 1.6184000000000001e+01
0.0000000000000000e+00 1.6184000000000001e+01
0.0000000000000000e+00 1.6184000000000001e+01
ITEM: ATOMS id type x y z vx vy vz
1 1 10.5052 11.8853 15.4157 0.762608 -2.93532 -4.08436
2 1 12.5282 13.9083 15.4157 0.762606 -2.93532 -4.08436
3 1 10.5052 13.9083 1.25467 0.762608 -2.93532 -4.08435
4 1 12.5282 11.8853 1.25467 0.762604 -2.93532 -4.08436
5 1 14.5512 11.8853 15.4157 0.762602 -2.93533 -4.08436
6 1 0.390238 13.9083 15.4157 0.762611 -2.93532 -4.08436
7 1 14.5512 13.9083 1.25467 0.762616 -2.93532 -4.08436
8 1 0.390237 11.8853 1.25467 0.76261 -2.93533 -4.08437
9 1 2.41324 11.8853 15.4157 0.762612 -2.93532 -4.08436
10 1 4.43624 13.9083 15.4157 0.762609 -2.93533 -4.08436
11 1 2.41324 13.9083 1.25467 0.762609 -2.93532 -4.08436
12 1 4.43624 11.8853 1.25467 0.762611 -2.93532 -4.08435
13 1 6.45924 11.8853 15.4157 0.762607 -2.93533 -4.08436
14 1 8.48224 13.9083 15.4157 0.762604 -2.93533 -4.08436
15 1 6.45924 13.9083 1.25467 0.7626 -2.93532 -4.08436
16 1 8.48224 11.8853 1.25467 0.762605 -2.93533 -4.08436
17 1 10.5052 -0.252688 15.4157 0.762608 -2.93533 -4.08436
18 1 12.5282 1.77031 15.4157 0.762609 -2.93532 -4.08435
19 1 10.5052 1.77031 1.25467 0.762611 -2.93532 -4.08436
20 1 12.5282 -0.252688 1.25467 0.762615 -2.93532 -4.08436
21 1 14.5512 -0.252688 15.4157 0.762607 -2.93532 -4.08436
22 1 0.390237 1.77031 15.4157 0.762613 -2.93533 -4.08436
23 1 14.5512 1.77031 1.25467 0.762607 -2.93532 -4.08436
24 1 0.390238 -0.252688 1.25467 0.762609 -2.93532 -4.08437
25 1 2.41324 -0.252688 15.4157 0.762606 -2.93532 -4.08436
26 1 4.43624 1.77031 15.4157 0.762608 -2.93532 -4.08436
27 1 2.41324 1.77031 1.25467 0.762611 -2.93533 -4.08436
28 1 4.43624 -0.252688 1.25467 0.762609 -2.93533 -4.08436
29 1 6.45924 -0.252688 15.4157 0.762609 -2.93533 -4.08436
30 1 8.48224 1.77031 15.4157 0.762601 -2.93532 -4.08436
31 1 6.45924 1.77031 1.25467 0.76261 -2.93532 -4.08436
32 1 8.48224 -0.252688 1.25467 0.762612 -2.93533 -4.08436
33 1 10.5052 3.79331 15.4157 0.762611 -2.93532 -4.08436
34 1 12.5282 5.81631 15.4157 0.762609 -2.93533 -4.08436
35 1 10.5052 5.81631 1.25467 0.76261 -2.93532 -4.08435
36 1 12.5282 3.79331 1.25467 0.762615 -2.93533 -4.08436
37 1 14.5512 3.79331 15.4157 0.762605 -2.93532 -4.08436
38 1 0.390238 5.81631 15.4157 0.762611 -2.93532 -4.08436
39 1 14.5512 5.81631 1.25467 0.762607 -2.93532 -4.08436
40 1 0.390238 3.79331 1.25467 0.762609 -2.93533 -4.08436
41 1 2.41324 3.79331 15.4157 0.762615 -2.93532 -4.08436
42 1 4.43624 5.81631 15.4157 0.76261 -2.93533 -4.08436
43 1 2.41324 5.81631 1.25467 0.762608 -2.93532 -4.08435
44 1 4.43624 3.79331 1.25467 0.762614 -2.93532 -4.08435
45 1 6.45924 3.79331 15.4157 0.762609 -2.93532 -4.08436
46 1 8.48224 5.81631 15.4157 0.76261 -2.93532 -4.08436
47 1 6.45924 5.81631 1.25467 0.762609 -2.93532 -4.08436
48 1 8.48224 3.79331 1.25467 0.762609 -2.93533 -4.08436
49 1 10.5052 7.83931 15.4157 0.762612 -2.93533 -4.08436
50 1 12.5282 9.86231 15.4157 0.762613 -2.93532 -4.08436
51 1 10.5052 9.86231 1.25467 0.762608 -2.93532 -4.08436
52 1 12.5282 7.83931 1.25467 0.762611 -2.93532 -4.08436
53 1 14.5512 7.83931 15.4157 0.762608 -2.93532 -4.08436
54 1 0.390238 9.86231 15.4157 0.762602 -2.93532 -4.08436
55 1 14.5512 9.86231 1.25467 0.762611 -2.93532 -4.08436
56 1 0.390238 7.83931 1.25467 0.762611 -2.93532 -4.08436
57 1 2.41324 7.83931 15.4157 0.762609 -2.93532 -4.08435
58 1 4.43624 9.86231 15.4157 0.762612 -2.93533 -4.08436
59 1 2.41324 9.86231 1.25467 0.76261 -2.93532 -4.08436
60 1 4.43624 7.83931 1.25467 0.762607 -2.93532 -4.08436
61 1 6.45924 7.83931 15.4157 0.762611 -2.93532 -4.08436
62 1 8.48224 9.86231 15.4157 0.762611 -2.93533 -4.08436
63 1 6.45924 9.86231 1.25467 0.76261 -2.93533 -4.08436
64 1 8.48224 7.83931 1.25467 0.762609 -2.93532 -4.08436
65 1 10.5052 11.8853 3.27767 0.762608 -2.93532 -4.08436
66 1 12.5282 13.9083 3.27767 0.762608 -2.93532 -4.08436
67 1 10.5052 13.9083 5.30067 0.762611 -2.93533 -4.08436
68 1 12.5282 11.8853 5.30067 0.762609 -2.93533 -4.08436
69 1 14.5512 11.8853 3.27767 0.762607 -2.93532 -4.08435
70 1 0.390237 13.9083 3.27767 0.762608 -2.93532 -4.08436
71 1 14.5512 13.9083 5.30067 0.762609 -2.93532 -4.08436
72 1 0.390237 11.8853 5.30067 0.762608 -2.93532 -4.08436
73 1 2.41324 11.8853 3.27767 0.762602 -2.93532 -4.08436
74 1 4.43624 13.9083 3.27767 0.762606 -2.93533 -4.08436
75 1 2.41324 13.9083 5.30067 0.762606 -2.93532 -4.08436
76 1 4.43624 11.8853 5.30067 0.762606 -2.93533 -4.08436
77 1 6.45924 11.8853 3.27767 0.762606 -2.93532 -4.08435
78 1 8.48224 13.9083 3.27767 0.762608 -2.93532 -4.08436
79 1 6.45924 13.9083 5.30067 0.762612 -2.93533 -4.08436
80 1 8.48224 11.8853 5.30067 0.762605 -2.93533 -4.08436
81 1 10.5052 -0.252688 3.27767 0.762601 -2.93533 -4.08436
82 1 12.5282 1.77031 3.27767 0.762607 -2.93533 -4.08436
83 1 10.5052 1.77031 5.30067 0.762604 -2.93532 -4.08436
84 1 12.5282 -0.252688 5.30067 0.762615 -2.93533 -4.08436
85 1 14.5512 -0.252688 3.27767 0.762614 -2.93532 -4.08436
86 1 0.390238 1.77031 3.27767 0.762606 -2.93532 -4.08436
87 1 14.5512 1.77031 5.30067 0.762607 -2.93532 -4.08436
88 1 0.390238 -0.252688 5.30067 0.762605 -2.93532 -4.08437
89 1 2.41324 -0.252688 3.27767 0.762615 -2.93533 -4.08436
90 1 4.43624 1.77031 3.27767 0.762605 -2.93532 -4.08436
91 1 2.41324 1.77031 5.30067 0.762608 -2.93532 -4.08436
92 1 4.43624 -0.252688 5.30067 0.762605 -2.93532 -4.08436
93 1 6.45924 -0.252688 3.27767 0.762603 -2.93532 -4.08436
94 1 8.48224 1.77031 3.27767 0.762605 -2.93533 -4.08436
95 1 6.45924 1.77031 5.30067 0.762603 -2.93532 -4.08436
96 1 8.48224 -0.252688 5.30067 0.762607 -2.93533 -4.08436
97 1 10.5052 3.79331 3.27767 0.762612 -2.93533 -4.08436
98 1 12.5282 5.81631 3.27767 0.762604 -2.93532 -4.08436
99 1 10.5052 5.81631 5.30067 0.762611 -2.93532 -4.08436
100 1 12.5282 3.79331 5.30067 0.762609 -2.93532 -4.08435
101 1 14.5512 3.79331 3.27767 0.762607 -2.93532 -4.08436
102 1 0.390238 5.81631 3.27767 0.762607 -2.93532 -4.08436
103 1 14.5512 5.81631 5.30067 0.762614 -2.93533 -4.08436
104 1 0.390238 3.79331 5.30067 0.762606 -2.93533 -4.08436
105 1 2.41324 3.79331 3.27767 0.762604 -2.93531 -4.08436
106 1 4.43624 5.81631 3.27767 0.762613 -2.93532 -4.08436
107 1 2.41324 5.81631 5.30067 0.762612 -2.93532 -4.08436
108 1 4.43624 3.79331 5.30067 0.762607 -2.93533 -4.08436
109 1 6.45924 3.79331 3.27767 0.762614 -2.93532 -4.08435
110 1 8.48224 5.81631 3.27767 0.762606 -2.93532 -4.08436
111 1 6.45924 5.81631 5.30067 0.762603 -2.93532 -4.08436
112 1 8.48224 3.79331 5.30067 0.762611 -2.93532 -4.08436
113 1 10.5052 7.83931 3.27767 0.762609 -2.93532 -4.08436
114 1 12.5282 9.86231 3.27767 0.762605 -2.93533 -4.08436
115 1 10.5052 9.86231 5.30067 0.762603 -2.93533 -4.08436
116 1 12.5282 7.83931 5.30067 0.762609 -2.93533 -4.08436
117 1 14.5512 7.83931 3.27767 0.76261 -2.93532 -4.08436
118 1 0.390238 9.86231 3.27767 0.762606 -2.93532 -4.08436
119 1 14.5512 9.86231 5.30067 0.762613 -2.93532 -4.08436
120 1 0.390238 7.83931 5.30067 0.762612 -2.93533 -4.08436
121 1 2.41324 7.83931 3.27767 0.762601 -2.93532 -4.08436
122 1 4.43624 9.86231 3.27767 0.762605 -2.93533 -4.08436
123 1 2.41324 9.86231 5.30067 0.762613 -2.93533 -4.08436
124 1 4.43624 7.83931 5.30067 0.762604 -2.93533 -4.08437
125 1 6.45924 7.83931 3.27767 0.762612 -2.93532 -4.08436
126 1 8.48224 9.86231 3.27767 0.76261 -2.93532 -4.08436
127 1 6.45924 9.86231 5.30067 0.762606 -2.93532 -4.08435
128 1 8.48224 7.83931 5.30067 0.762608 -2.93533 -4.08436
129 1 10.5052 11.8853 7.32367 0.762608 -2.93532 -4.08435
130 1 12.5282 13.9083 7.32367 0.762612 -2.93532 -4.08436
131 1 10.5052 13.9083 9.34667 0.762609 -2.93533 -4.08436
132 1 12.5282 11.8853 9.34667 0.762606 -2.93532 -4.08437
133 1 14.5512 11.8853 7.32367 0.76261 -2.93532 -4.08436
134 1 0.390238 13.9083 7.32367 0.762602 -2.93532 -4.08436
135 1 14.5512 13.9083 9.34667 0.762611 -2.93533 -4.08436
136 1 0.390238 11.8853 9.34667 0.762608 -2.93533 -4.08436
137 1 2.41324 11.8853 7.32367 0.762613 -2.93533 -4.08436
138 1 4.43624 13.9083 7.32367 0.762605 -2.93533 -4.08436
139 1 2.41324 13.9083 9.34667 0.762605 -2.93533 -4.08436
140 1 4.43624 11.8853 9.34667 0.76261 -2.93532 -4.08436
141 1 6.45924 11.8853 7.32367 0.762607 -2.93532 -4.08436
142 1 8.48224 13.9083 7.32367 0.762607 -2.93532 -4.08436
143 1 6.45924 13.9083 9.34667 0.762605 -2.93532 -4.08436
144 1 8.48224 11.8853 9.34667 0.762615 -2.93532 -4.08436
145 1 10.5052 -0.252688 7.32367 0.762603 -2.93533 -4.08435
146 1 12.5282 1.77031 7.32367 0.762609 -2.93532 -4.08436
147 1 10.5052 1.77031 9.34667 0.762607 -2.93532 -4.08436
148 1 12.5282 -0.252688 9.34667 0.762603 -2.93532 -4.08436
149 1 14.5512 -0.252688 7.32367 0.762611 -2.93532 -4.08436
150 1 0.390238 1.77031 7.32367 0.762608 -2.93532 -4.08436
151 1 14.5512 1.77031 9.34667 0.762605 -2.93532 -4.08436
152 1 0.390237 -0.252688 9.34667 0.762606 -2.93532 -4.08436
153 1 2.41324 -0.252688 7.32367 0.762605 -2.93532 -4.08436
154 1 4.43624 1.77031 7.32367 0.762607 -2.93532 -4.08436
155 1 2.41324 1.77031 9.34667 0.762609 -2.93532 -4.08436
156 1 4.43624 -0.252688 9.34667 0.762601 -2.93532 -4.08436
157 1 6.45924 -0.252688 7.32367 0.762611 -2.93532 -4.08436
158 1 8.48224 1.77031 7.32367 0.762606 -2.93532 -4.08436
159 1 6.45924 1.77031 9.34667 0.762613 -2.93532 -4.08436
160 1 8.48224 -0.252688 9.34667 0.76261 -2.93533 -4.08436
161 1 10.5052 3.79331 7.32367 0.7626 -2.93532 -4.08436
162 1 12.5282 5.81631 7.32367 0.762611 -2.93532 -4.08436
163 1 10.5052 5.81631 9.34667 0.762607 -2.93532 -4.08436
164 1 12.5282 3.79331 9.34667 0.762607 -2.93532 -4.08436
165 1 14.5512 3.79331 7.32367 0.762615 -2.93532 -4.08436
166 1 0.390238 5.81631 7.32367 0.762611 -2.93532 -4.08436
167 1 14.5512 5.81631 9.34667 0.762607 -2.93532 -4.08436
168 1 0.390238 3.79331 9.34667 0.762605 -2.93533 -4.08436
169 1 2.41324 3.79331 7.32367 0.762606 -2.93532 -4.08435
170 1 4.43624 5.81631 7.32367 0.762613 -2.93532 -4.08436
171 1 2.41324 5.81631 9.34667 0.762609 -2.93533 -4.08436
172 1 4.43624 3.79331 9.34667 0.762609 -2.93532 -4.08435
173 1 6.45924 3.79331 7.32367 0.762608 -2.93532 -4.08436
174 1 8.48224 5.81631 7.32367 0.762605 -2.93532 -4.08436
175 1 6.45924 5.81631 9.34667 0.762609 -2.93532 -4.08436
176 1 8.48224 3.79331 9.34667 0.76261 -2.93532 -4.08436
177 1 10.5052 7.83931 7.32367 0.762603 -2.93532 -4.08436
178 1 12.5282 9.86231 7.32367 0.762604 -2.93532 -4.08436
179 1 10.5052 9.86231 9.34667 0.762608 -2.93533 -4.08436
180 1 12.5282 7.83931 9.34667 0.762608 -2.93532 -4.08437
181 1 14.5512 7.83931 7.32367 0.762607 -2.93533 -4.08437
182 1 0.390238 9.86231 7.32367 0.76261 -2.93532 -4.08436
183 1 14.5512 9.86231 9.34667 0.762605 -2.93532 -4.08436
184 1 0.390238 7.83931 9.34667 0.762607 -2.93532 -4.08436
185 1 2.41324 7.83931 7.32367 0.762606 -2.93532 -4.08436
186 1 4.43624 9.86231 7.32367 0.762607 -2.93531 -4.08436
187 1 2.41324 9.86231 9.34667 0.76261 -2.93533 -4.08436
188 1 4.43624 7.83931 9.34667 0.762611 -2.93532 -4.08436
189 1 6.45924 7.83931 7.32367 0.762612 -2.93532 -4.08436
190 1 8.48224 9.86231 7.32367 0.762607 -2.93533 -4.08436
191 1 6.45924 9.86231 9.34667 0.762602 -2.93532 -4.08436
192 1 8.48224 7.83931 9.34667 0.762606 -2.93532 -4.08436
193 1 10.5052 11.8853 11.3697 0.762609 -2.93532 -4.08436
194 1 12.5282 13.9083 11.3697 0.762609 -2.93532 -4.08436
195 1 10.5052 13.9083 13.3927 0.762606 -2.93532 -4.08436
196 1 12.5282 11.8853 13.3927 0.762611 -2.93533 -4.08436
197 1 14.5512 11.8853 11.3697 0.762606 -2.93533 -4.08436
198 1 0.390238 13.9083 11.3697 0.762611 -2.93532 -4.08436
199 1 14.5512 13.9083 13.3927 0.762608 -2.93532 -4.08436
200 1 0.390238 11.8853 13.3927 0.762606 -2.93532 -4.08436
201 1 2.41324 11.8853 11.3697 0.762613 -2.93532 -4.08436
202 1 4.43624 13.9083 11.3697 0.762608 -2.93532 -4.08436
203 1 2.41324 13.9083 13.3927 0.762608 -2.93532 -4.08436
204 1 4.43624 11.8853 13.3927 0.762613 -2.93532 -4.08436
205 1 6.45924 11.8853 11.3697 0.762606 -2.93532 -4.08436
206 1 8.48224 13.9083 11.3697 0.762611 -2.93533 -4.08436
207 1 6.45924 13.9083 13.3927 0.762609 -2.93533 -4.08436
208 1 8.48224 11.8853 13.3927 0.762611 -2.93533 -4.08436
209 1 10.5052 -0.252688 11.3697 0.762611 -2.93533 -4.08436
210 1 12.5282 1.77031 11.3697 0.762607 -2.93532 -4.08436
211 1 10.5052 1.77031 13.3927 0.762607 -2.93532 -4.08435
212 1 12.5282 -0.252688 13.3927 0.76261 -2.93532 -4.08436
213 1 14.5512 -0.252688 11.3697 0.762606 -2.93532 -4.08436
214 1 0.390238 1.77031 11.3697 0.762608 -2.93532 -4.08435
215 1 14.5512 1.77031 13.3927 0.762606 -2.93532 -4.08436
216 1 0.390238 -0.252688 13.3927 0.762599 -2.93533 -4.08436
217 1 2.41324 -0.252688 11.3697 0.762607 -2.93533 -4.08437
218 1 4.43624 1.77031 11.3697 0.762608 -2.93532 -4.08436
219 1 2.41324 1.77031 13.3927 0.76261 -2.93532 -4.08436
220 1 4.43624 -0.252688 13.3927 0.762605 -2.93533 -4.08436
221 1 6.45924 -0.252688 11.3697 0.76261 -2.93533 -4.08437
222 1 8.48224 1.77031 11.3697 0.76261 -2.93533 -4.08436
223 1 6.45924 1.77031 13.3927 0.762613 -2.93533 -4.08436
224 1 8.48224 -0.252688 13.3927 0.762606 -2.93532 -4.08436
225 1 10.5052 3.79331 11.3697 0.762609 -2.93532 -4.08436
226 1 12.5282 5.81631 11.3697 0.762614 -2.93532 -4.08436
227 1 10.5052 5.81631 13.3927 0.762606 -2.93532 -4.08436
228 1 12.5282 3.79331 13.3927 0.762605 -2.93532 -4.08436
229 1 14.5512 3.79331 11.3697 0.762603 -2.93533 -4.08436
230 1 0.390238 5.81631 11.3697 0.762605 -2.93532 -4.08436
231 1 14.5512 5.81631 13.3927 0.762609 -2.93532 -4.08435
232 1 0.390238 3.79331 13.3927 0.76261 -2.93532 -4.08436
233 1 2.41324 3.79331 11.3697 0.762609 -2.93532 -4.08436
234 1 4.43624 5.81631 11.3697 0.762612 -2.93532 -4.08436
235 1 2.41324 5.81631 13.3927 0.762608 -2.93533 -4.08437
236 1 4.43624 3.79331 13.3927 0.76261 -2.93532 -4.08436
237 1 6.45924 3.79331 11.3697 0.76261 -2.93532 -4.08436
238 1 8.48224 5.81631 11.3697 0.762613 -2.93533 -4.08436
239 1 6.45924 5.81631 13.3927 0.762608 -2.93532 -4.08436
240 1 8.48224 3.79331 13.3927 0.762605 -2.93532 -4.08436
241 1 10.5052 7.83931 11.3697 0.762607 -2.93533 -4.08436
242 1 12.5282 9.86231 11.3697 0.762605 -2.93532 -4.08436
243 1 10.5052 9.86231 13.3927 0.762602 -2.93533 -4.08437
244 1 12.5282 7.83931 13.3927 0.762609 -2.93532 -4.08436
245 1 14.5512 7.83931 11.3697 0.762604 -2.93532 -4.08436
246 1 0.390238 9.86231 11.3697 0.762606 -2.93532 -4.08436
247 1 14.5512 9.86231 13.3927 0.762608 -2.93532 -4.08436
248 1 0.390238 7.83931 13.3927 0.762612 -2.93532 -4.08436
249 1 2.41324 7.83931 11.3697 0.762614 -2.93533 -4.08437
250 1 4.43624 9.86231 11.3697 0.762603 -2.93532 -4.08436
251 1 2.41324 9.86231 13.3927 0.762609 -2.93532 -4.08436
252 1 4.43624 7.83931 13.3927 0.762613 -2.93533 -4.08436
253 1 6.45924 7.83931 11.3697 0.762606 -2.93532 -4.08436
254 1 8.48224 9.86231 11.3697 0.762609 -2.93532 -4.08436
255 1 6.45924 9.86231 13.3927 0.762605 -2.93532 -4.08436
256 1 8.48224 7.83931 13.3927 0.762607 -2.93532 -4.08436
