LAMMPS (23 Jun 2022)
OMP_NUM_THREADS environment is not set. Defaulting to 1 thread. (src/comm.cpp:98)
  using 1 OpenMP thread(s) per MPI task
# 3d metal relaxaction testing parameters

#variable u loop 2 9
#label myloop

# initilizing EAM and boundry conditions

units		metal
boundary	p p p

#loop
variable u loop 1 1
label myloop

# reading data file containing the configuration

read_data Al_alloy.lmpdat
Reading data file ...
  orthogonal box = (0 0 0) to (16.184 16.184 16.184)
  1 by 2 by 2 MPI processor grid
  reading atoms ...
  256 atoms
  read_data CPU = 0.004 seconds

# defining potentials and other parameters

pair_style	eam/alloy
pair_coeff	* * Al.eam Al

# Delta t
variable t equal 0.0005*$u
variable t equal 0.0005*1
timestep $t
timestep 0.0005

variable b equal 0.3*$u
variable b equal 0.3*1
neighbor	$b bin
neighbor	0.3 bin
neigh_modify	delay 5

# dumping configurations at timesteps
# dump mydump all custom 2000000 confdump.$u.*.data id type x y z vx vy vz
# dump_modify mydump sort id
# set numerical integrator
## NVE; default is velocity Verlet
fix 1 all nvt temp 300.0 300.0 $(100.0*dt)
fix 1 all nvt temp 300.0 300.0 0.050000000000000002776
thermo 10000

run 100000000
Neighbor list info ...
  update every 1 steps, delay 5 steps, check yes
  max neighbors/atom: 2000, page size: 100000
  master list distance cutoff = 6.58721
  ghost atom cutoff = 6.58721
  binsize = 3.293605, bins = 5 5 5
  1 neighbor lists, perpetual/occasional/extra = 1 0 0
  (1) pair eam/alloy, perpetual
      attributes: half, newton on
      pair build: half/bin/atomonly/newton
      stencil: half/bin/3d
      bin: standard
Per MPI rank memory allocation (min/avg/max) = 3.345 | 3.345 | 3.345 Mbytes
   Step          Temp          E_pair         E_mol          TotEng         Press     
         0   0             -860.15079      0             -860.15079      2342.81      
     10000   338.37498     -860.15079      0             -848.9975       5153.1868    
     20000   281.48656     -860.15079      0             -850.87262      4680.6995    
     30000   287.62374     -860.15079      0             -850.67033      4731.6718    
     40000   283.73291     -860.15079      0             -850.79857      4699.3565    
     50000   284.14547     -860.15079      0             -850.78497      4702.7831    
     60000   324.56961     -860.15079      0             -849.45254      5038.5262    
     70000   296.64311     -860.15079      0             -850.37304      4806.5824    
     80000   289.4227      -860.15079      0             -850.61103      4746.6131    
     90000   271.46284     -860.15079      0             -851.20301      4597.4473    
    100000   310.89248     -860.15079      0             -849.90336      4924.9306    
    110000   300.01659     -860.15079      0             -850.26184      4834.6008    
    120000   307.67001     -860.15079      0             -850.00957      4898.1664    
    130000   280.20016     -860.15079      0             -850.91502      4670.0153    
    140000   283.51839     -860.15079      0             -850.80564      4697.5748    
    150000   287.92625     -860.15079      0             -850.66036      4734.1844    
    160000   303.60492     -860.15079      0             -850.14357      4864.4037    
    170000   312.19108     -860.15079      0             -849.86055      4935.7161    
    180000   307.7237      -860.15079      0             -850.00781      4898.6123    
    190000   271.09639     -860.15079      0             -851.21509      4594.4038    
    200000   306.12902     -860.15079      0             -850.06037      4885.3676    
    210000   290.481       -860.15079      0             -850.57615      4755.4029    
    220000   303.96423     -860.15079      0             -850.13172      4867.388     
    230000   298.05429     -860.15079      0             -850.32652      4818.3029    
    240000   319.86862     -860.15079      0             -849.60749      4999.482     
    250000   319.27717     -860.15079      0             -849.62699      4994.5697    
    260000   286.39923     -860.15079      0             -850.71069      4721.5016    
    270000   296.21372     -860.15079      0             -850.38719      4803.016     
    280000   297.42171     -860.15079      0             -850.34737      4813.049     
    290000   295.2477      -860.15079      0             -850.41903      4794.9928    
    300000   307.11563     -860.15079      0             -850.02785      4893.562     
    310000   298.42123     -860.15079      0             -850.31443      4821.3505    
    320000   313.56098     -860.15079      0             -849.8154       4947.0938    
    330000   311.02811     -860.15079      0             -849.89889      4926.0571    
    340000   325.88362     -860.15079      0             -849.40923      5049.4397    
    350000   306.34823     -860.15079      0             -850.05314      4887.1883    
    360000   316.97449     -860.15079      0             -849.70289      4975.4448    
    370000   309.83147     -860.15079      0             -849.93833      4916.1184    
    380000   284.56807     -860.15079      0             -850.77105      4706.293     
    390000   303.59739     -860.15079      0             -850.14381      4864.3412    
    400000   318.77276     -860.15079      0             -849.64361      4990.3804    
    410000   303.17022     -860.15079      0             -850.15789      4860.7933    
    420000   302.38326     -860.15079      0             -850.18383      4854.2572    
    430000   308.75322     -860.15079      0             -849.97387      4907.163     
    440000   314.75        -860.15079      0             -849.77621      4956.9693    
    450000   302.17585     -860.15079      0             -850.19067      4852.5345    
    460000   315.5662      -860.15079      0             -849.74931      4963.7482    
    470000   309.93584     -860.15079      0             -849.93489      4916.9852    
    480000   323.14482     -860.15079      0             -849.4995       5026.6926    
    490000   308.67627     -860.15079      0             -849.97641      4906.5239    
    500000   325.83637     -860.15079      0             -849.41079      5049.0473    
    510000   303.29471     -860.15079      0             -850.15379      4861.8273    
    520000   315.32498     -860.15079      0             -849.75726      4961.7448    
    530000   314.7271      -860.15079      0             -849.77696      4956.7791    
    540000   297.22532     -860.15079      0             -850.35385      4811.4179    
    550000   311.4197      -860.15079      0             -849.88598      4929.3094    
    560000   303.61814     -860.15079      0             -850.14313      4864.5135    
    570000   293.23606     -860.15079      0             -850.48534      4778.2851    
    580000   295.75469     -860.15079      0             -850.40232      4799.2036    
    590000   297.74515     -860.15079      0             -850.33671      4815.7353    
    600000   287.88482     -860.15079      0             -850.66172      4733.8403    
    610000   321.7021      -860.15079      0             -849.54706      5014.71      
    620000   301.73078     -860.15079      0             -850.20534      4848.8381    
    630000   308.53864     -860.15079      0             -849.98094      4905.3808    
    640000   306.84462     -860.15079      0             -850.03678      4891.3111    
    650000   291.02944     -860.15079      0             -850.55807      4759.9579    
    660000   316.22099     -860.15079      0             -849.72772      4969.1866    
    670000   299.59969     -860.15079      0             -850.27558      4831.1383    
    680000   302.70564     -860.15079      0             -850.17321      4856.9348    
    690000   286.70108     -860.15079      0             -850.70074      4724.0087    
    700000   320.06428     -860.15079      0             -849.60104      5001.1071    
    710000   296.6981      -860.15079      0             -850.37122      4807.0391    
    720000   283.63945     -860.15079      0             -850.80165      4698.5803    
    730000   297.29671     -860.15079      0             -850.35149      4812.0108    
    740000   294.34609     -860.15079      0             -850.44875      4787.5044    
    750000   316.127       -860.15079      0             -849.73082      4968.406     
    760000   325.76796     -860.15079      0             -849.41304      5048.4791    
    770000   331.97858     -860.15079      0             -849.20833      5100.0615    
    780000   332.72452     -860.15079      0             -849.18374      5106.2569    
    790000   330.93801     -860.15079      0             -849.24263      5091.419     
    800000   305.71298     -860.15079      0             -850.07408      4881.9122    
    810000   261.73824     -860.15079      0             -851.52355      4516.6796    
    820000   296.50442     -860.15079      0             -850.37761      4805.4304    
    830000   280.83664     -860.15079      0             -850.89404      4675.3015    
    840000   304.0811      -860.15079      0             -850.12787      4868.3586    
    850000   315.48698     -860.15079      0             -849.75192      4963.0903    
    860000   304.50204     -860.15079      0             -850.114        4871.8548    
    870000   306.5429      -860.15079      0             -850.04673      4888.8052    
    880000   308.31244     -860.15079      0             -849.9884       4903.5021    
    890000   292.01612     -860.15079      0             -850.52555      4768.1528    
    900000   300.69474     -860.15079      0             -850.23949      4840.2332    
    910000   299.60048     -860.15079      0             -850.27556      4831.1448    
    920000   322.9642      -860.15079      0             -849.50546      5025.1924    
    930000   269.32053     -860.15079      0             -851.27362      4579.6544    
    940000   281.54314     -860.15079      0             -850.87075      4681.1693    
    950000   298.18666     -860.15079      0             -850.32216      4819.4023    
    960000   286.49131     -860.15079      0             -850.70765      4722.2664    
    970000   309.66395     -860.15079      0             -849.94385      4914.727     
    980000   308.34543     -860.15079      0             -849.98731      4903.7761    
    990000   271.45942     -860.15079      0             -851.20312      4597.4189    
   1000000   283.01761     -860.15079      0             -850.82215      4693.4156    
   1010000   286.35838     -860.15079      0             -850.71203      4721.1624    
   1020000   322.89657     -860.15079      0             -849.50769      5024.6307    
   1030000   294.66324     -860.15079      0             -850.4383       4790.1385    
   1040000   310.61228     -860.15079      0             -849.91259      4922.6034    
   1050000   291.29563     -860.15079      0             -850.5493       4762.1688    
   1060000   290.6565      -860.15079      0             -850.57036      4756.8605    
   1070000   313.04138     -860.15079      0             -849.83253      4942.7783    
   1080000   307.81617     -860.15079      0             -850.00476      4899.3803    
   1090000   291.88654     -860.15079      0             -850.52982      4767.0766    
   1100000   306.25375     -860.15079      0             -850.05626      4886.4036    
   1110000   310.27994     -860.15079      0             -849.92355      4919.8432    
   1120000   304.75414     -860.15079      0             -850.10569      4873.9486    
   1130000   302.11182     -860.15079      0             -850.19278      4852.0028    
   1140000   292.97795     -860.15079      0             -850.49384      4776.1413    
   1150000   291.6345      -860.15079      0             -850.53813      4764.9833    
   1160000   306.05191     -860.15079      0             -850.06291      4884.7272    
   1170000   284.41017     -860.15079      0             -850.77625      4704.9815    
   1180000   317.72521     -860.15079      0             -849.67814      4981.6799    
   1190000   300.19995     -860.15079      0             -850.2558       4836.1237    
   1200000   330.20767     -860.15079      0             -849.2667       5085.3531    
   1210000   320.07725     -860.15079      0             -849.60062      5001.2148    
   1220000   313.17433     -860.15079      0             -849.82814      4943.8826    
   1230000   329.29717     -860.15079      0             -849.29671      5077.7909    
   1240000   307.1926      -860.15079      0             -850.02531      4894.2012    
   1250000   315.14054     -860.15079      0             -849.76334      4960.2129    
   1260000   284.94064     -860.15079      0             -850.75876      4709.3874    
   1270000   324.29921     -860.15079      0             -849.46145      5036.2803    
   1280000   275.99005     -860.15079      0             -851.05379      4635.0481    
   1290000   296.82019     -860.15079      0             -850.3672       4808.0531    
   1300000   281.40065     -860.15079      0             -850.87545      4679.9859    
   1310000   288.67836     -860.15079      0             -850.63556      4740.431     
   1320000   303.31629     -860.15079      0             -850.15308      4862.0065    
   1330000   317.78072     -860.15079      0             -849.67631      4982.141     
   1340000   280.82287     -860.15079      0             -850.89449      4675.1872    
   1350000   312.13347     -860.15079      0             -849.86245      4935.2377    
   1360000   318.69323     -860.15079      0             -849.64623      4989.7199    
   1370000   291.43987     -860.15079      0             -850.54454      4763.3668    
   1380000   311.17632     -860.15079      0             -849.894        4927.2881    
   1390000   292.98555     -860.15079      0             -850.49359      4776.2045    
   1400000   299.42082     -860.15079      0             -850.28148      4829.6527    
   1410000   326.92297     -860.15079      0             -849.37497      5058.0721    
   1420000   316.24353     -860.15079      0             -849.72698      4969.3738    
   1430000   304.72142     -860.15079      0             -850.10676      4873.6769    
   1440000   287.04383     -860.15079      0             -850.68944      4726.8555    
   1450000   278.43646     -860.15079      0             -850.97315      4655.3668    
   1460000   296.17517     -860.15079      0             -850.38846      4802.6958    
   1470000   287.80154     -860.15079      0             -850.66447      4733.1487    
   1480000   280.0064      -860.15079      0             -850.9214       4668.406     
   1490000   295.32414     -860.15079      0             -850.41651      4795.6277    
   1500000   287.35451     -860.15079      0             -850.6792       4729.4358    
   1510000   298.78021     -860.15079      0             -850.30259      4824.3321    
   1520000   297.39372     -860.15079      0             -850.34829      4812.8167    
   1530000   305.75901     -860.15079      0             -850.07256      4882.2946    
   1540000   303.48191     -860.15079      0             -850.14762      4863.3821    
   1550000   291.16285     -860.15079      0             -850.55367      4761.0661    
   1560000   315.32845     -860.15079      0             -849.75714      4961.7737    
   1570000   297.28144     -860.15079      0             -850.352        4811.884     
   1580000   312.66601     -860.15079      0             -849.8449       4939.6607    
   1590000   301.75854     -860.15079      0             -850.20442      4849.0686    
   1600000   299.35175     -860.15079      0             -850.28376      4829.0791    
   1610000   311.6766      -860.15079      0             -849.87751      4931.4431    
   1620000   288.05735     -860.15079      0             -850.65603      4735.2732    
   1630000   321.6421      -860.15079      0             -849.54904      5014.2118    
   1640000   297.56909     -860.15079      0             -850.34251      4814.2732    
   1650000   292.22903     -860.15079      0             -850.51853      4769.9212    
   1660000   288.67658     -860.15079      0             -850.63562      4740.4163    
   1670000   318.26189     -860.15079      0             -849.66045      4986.1374    
   1680000   280.87425     -860.15079      0             -850.8928       4675.614     
   1690000   328.45435     -860.15079      0             -849.3245       5070.7909    
   1700000   288.49635     -860.15079      0             -850.64156      4738.9194    
   1710000   289.73366     -860.15079      0             -850.60078      4749.1959    
   1720000   278.51218     -860.15079      0             -850.97065      4655.9959    
   1730000   311.30336     -860.15079      0             -849.88981      4928.3432    
   1740000   306.83892     -860.15079      0             -850.03697      4891.2637    
   1750000   292.12358     -860.15079      0             -850.522        4769.0455    
   1760000   291.58404     -860.15079      0             -850.53979      4764.5644    
   1770000   318.77296     -860.15079      0             -849.64361      4990.3821    
   1780000   284.13392     -860.15079      0             -850.78536      4702.6872    
   1790000   294.18185     -860.15079      0             -850.45416      4786.1407    
   1800000   328.18762     -860.15079      0             -849.33329      5068.5758    
   1810000   268.83881     -860.15079      0             -851.2895       4575.6535    
   1820000   277.51759     -860.15079      0             -851.00344      4647.7354    
   1830000   293.59286     -860.15079      0             -850.47358      4781.2488    
   1840000   303.48649     -860.15079      0             -850.14747      4863.4202    
   1850000   310.2476      -860.15079      0             -849.92461      4919.5747    
   1860000   304.1211      -860.15079      0             -850.12655      4868.6912    
   1870000   295.59957     -860.15079      0             -850.40743      4797.9156    
   1880000   303.61729     -860.15079      0             -850.14316      4864.5067    
   1890000   308.19841     -860.15079      0             -849.99216      4902.5552    
   1900000   279.07103     -860.15079      0             -850.95223      4660.6377    
   1910000   286.99755     -860.15079      0             -850.69096      4726.4716    
   1920000   299.2162      -860.15079      0             -850.28822      4827.9535    
   1930000   295.44        -860.15079      0             -850.41269      4796.5901    
   1940000   287.66202     -860.15079      0             -850.66906      4731.9901    
   1950000   311.0455      -860.15079      0             -849.89831      4926.202     
   1960000   295.66986     -860.15079      0             -850.40511      4798.4994    
   1970000   329.81675     -860.15079      0             -849.27959      5082.1065    
   1980000   296.65451     -860.15079      0             -850.37266      4806.6775    
   1990000   280.07273     -860.15079      0             -850.91921      4668.9578    
   2000000   302.4877      -860.15079      0             -850.18039      4855.1252    
   2010000   297.87677     -860.15079      0             -850.33237      4816.8287    
   2020000   307.1284      -860.15079      0             -850.02743      4893.6684    
   2030000   297.09329     -860.15079      0             -850.3582       4810.322     
   2040000   320.68693     -860.15079      0             -849.58052      5006.2791    
   2050000   305.98732     -860.15079      0             -850.06504      4884.191     
   2060000   293.04628     -860.15079      0             -850.49159      4776.7095    
   2070000   317.53734     -860.15078      0             -849.68433      4980.1211    
   2080000   272.58159     -860.15079      0             -851.16613      4606.7396    
   2090000   307.03153     -860.15079      0             -850.03062      4892.8637    
   2100000   300.30373     -860.15079      0             -850.25237      4836.9867    
   2110000   282.42879     -860.15078      0             -850.84155      4688.5268    
   2120000   284.98297     -860.15079      0             -850.75737      4709.7401    
   2130000   328.39943     -860.15079      0             -849.3263       5070.335     
   2140000   296.62291     -860.15079      0             -850.3737       4806.4151    
   2150000   279.50338     -860.15079      0             -850.93798      4664.2288    
   2160000   290.26064     -860.15079      0             -850.58341      4753.5731    
   2170000   316.57756     -860.15079      0             -849.71597      4972.1483    
   2180000   292.26767     -860.15079      0             -850.51726      4770.2424    
   2190000   296.32911     -860.15079      0             -850.38338      4803.9753    
   2200000   296.5521      -860.15079      0             -850.37603      4805.8271    
   2210000   313.20451     -860.15079      0             -849.82715      4944.1334    
   2220000   291.36694     -860.15079      0             -850.54694      4762.762     
   2230000   288.66967     -860.15078      0             -850.63584      4740.361     
   2240000   301.43035     -860.15078      0             -850.21524      4846.3446    
   2250000   281.70032     -860.15079      0             -850.86557      4682.4753    
   2260000   298.04252     -860.15078      0             -850.3269       4818.2086    
   2270000   314.13308     -860.15076      0             -849.79651      4951.8536    
   2280000   284.53283     -860.15078      0             -850.77219      4706.0041    
   2290000   280.03192     -860.15079      0             -850.92056      4668.6183    
   2300000   329.13701     -860.15077      0             -849.30197      5076.4675    
   2310000   269.53185     -860.15073      0             -851.2666       4581.4247    
   2320000   302.15957     -860.15077      0             -850.19119      4852.4037    
   2330000   291.71144     -860.15078      0             -850.53558      4765.6241    
   2340000   325.38668     -860.15071      0             -849.42553      5045.3322    
   2350000   274.12823     -860.15073      0             -851.11509      4619.6019    
   2360000   317.65411     -860.15076      0             -849.68046      4981.0964    
   2370000   295.05367     -860.15076      0             -850.4254       4793.3881    
   2380000   294.24652     -860.15065      0             -850.45189      4786.7116    
   2390000   292.77264     -860.15071      0             -850.50053      4774.4565    
   2400000   294.84379     -860.15078      0             -850.43234      4791.6395    
   2410000   286.7868      -860.15068      0             -850.69781      4724.7479    
   2420000   313.23069     -860.15062      0             -849.82612      4944.3919    
   2430000   315.009       -860.15073      0             -849.76762      4959.1354    
   2440000   307.17483     -860.15078      0             -850.02589      4894.0569    
   2450000   294.66487     -860.15061      0             -850.43806      4790.1966    
   2460000   285.86583     -860.15064      0             -850.72812      4717.1088    
   2470000   296.66647     -860.15078      0             -850.37226      4806.7794    
   2480000   291.12163     -860.15076      0             -850.555        4760.7315    
   2490000   325.97928     -860.15045      0             -849.40574      5050.3117    
   2500000   320.05646     -860.15052      0             -849.60103      5001.1052    
   2510000   306.02004     -860.15078      0             -850.06395      4884.4665    
   2520000   296.23382     -860.15069      0             -850.38643      4803.2081    
   2530000   314.09315     -860.15042      0             -849.79749      4951.5987    
   2540000   301.67007     -860.15053      0             -850.20708      4848.3952    
   2550000   290.21565     -860.15078      0             -850.58488      4753.2032    
   2560000   322.0186      -860.15041      0             -849.53625      5017.4252    
   2570000   323.10044     -860.1501       0             -849.50028      5026.4735    
   2580000   292.56513     -860.15036      0             -850.50702      4772.8092    
   2590000   296.9663      -860.15078      0             -850.36238      4809.2684    
   2600000   295.44957     -860.15041      0             -850.41199      4796.7563    
   2610000   314.12998     -860.15007      0             -849.79593      4951.9751    
   2620000   284.96912     -860.15041      0             -850.75744      4709.7109    
   2630000   288.0731      -860.15076      0             -850.65549      4735.4111    
   2640000   321.27034     -860.15061      0             -849.56111      5011.1673    
   2650000   301.8771      -860.15002      0             -850.19975      4850.2194    
   2660000   293.45142     -860.15027      0             -850.47772      4780.1904    
   2670000   301.82586     -860.15078      0             -850.2022       4849.6299    
   2680000   335.96696     -860.14929      0             -849.07537      5133.5033    
   2690000   269.55651     -860.14675      0             -851.26181      4582.4566    
   2700000   291.77014     -860.14972      0             -850.53259      4766.3402    
   2710000   318.53242     -860.14891      0             -849.64966      4988.78      
   2720000   319.4349      -860.14679      0             -849.61779      4996.7172    
   2730000   303.59301     -860.14718      0             -850.14034      4865.0662    
   2740000   316.09446     -860.1507       0             -849.73181      4968.1646    
   2750000   296.04906     -860.14851      0             -850.39034      4802.1315    
   2760000   283.52195     -860.14822      0             -850.80296      4698.1501    
   2770000   346.72107     -860.15026      0             -848.72187      5222.6268    
   2780000   309.17993     -860.15022      0             -849.95924      4910.8353    
   2790000   293.51831     -860.14861      0             -850.47385      4781.0866    
   2800000   316.97322     -860.14721      0             -849.69935      4976.1806    
   2810000   300.26427     -860.14889      0             -850.25178      4837.0617    
   2820000   324.36086     -860.15063      0             -849.45926      5036.8369    
   2830000   315.49614     -860.14689      0             -849.74772      4963.9835    
   2840000   266.06729     -860.14711      0             -851.37718      4553.4073    
   2850000   304.80514     -860.15065      0             -850.10387      4874.4147    
   2860000   288.00546     -860.15031      0             -850.65726      4734.9555    
   2870000   308.13724     -860.14892      0             -849.9923       4902.4442    
   2880000   297.48435     -860.15015      0             -850.34467      4813.7136    
   2890000   306.1054      -860.15064      0             -850.06099      4885.2157    
   2900000   313.39853     -860.14981      0             -849.81978      4945.9606    
   2910000   272.713       -860.14902      0             -851.16004      4608.2044    
   2920000   268.20546     -860.14984      0             -851.30942      4570.5987    
   2930000   300.09801     -860.15056      0             -850.25893      4835.338     
   2940000   318.46577     -860.14779      0             -849.65073      4988.472     
   2950000   284.4075      -860.14766      0             -850.77321      4705.6157    
   2960000   311.94003     -860.14817      0             -849.86621      4934.1796    
   2970000   291.52353     -860.15061      0             -850.5416       4764.1135    
   2980000   298.53444     -860.14802      0             -850.30792      4822.8926    
   2990000   284.05459     -860.14859      0             -850.78578      4702.4978    
   3000000   300.31791     -860.14961      0             -850.25073      4837.3652    
   3010000   296.11725     -860.15         0             -850.38958      4802.4279    
   3020000   306.96367     -860.14813      0             -850.03019      4892.9245    
   3030000   282.32711     -860.1483       0             -850.84242      4688.2291    
   3040000   339.82322     -860.15049      0             -848.94946      5165.2866    
   3050000   291.70037     -860.14932      0             -850.53448      4765.897     
   3060000   276.55192     -860.14774      0             -851.03222      4640.4095    
   3070000   282.34261     -860.14832      0             -850.84193      4688.3638    
   3080000   299.4384      -860.1507       0             -850.28081      4829.827     
   3090000   303.96825     -860.14921      0             -850.13001      4867.7927    
   3100000   321.49606     -860.14562      0             -849.54868      5014.2023    
   3110000   288.17147     -860.14853      0             -850.65001      4736.7914    
   3120000   314.29947     -860.15022      0             -849.79048      4953.3925    
   3130000   298.57005     -860.14903      0             -850.30776      4823.0152    
   3140000   272.73595     -860.1459       0             -851.15616      4609.2194    
   3150000   300.95081     -860.14927      0             -850.22953      4842.7598    
   3160000   290.7525      -860.15068      0             -850.56709      4757.725     
   3170000   320.32224     -860.14753      0             -849.58928      5004.0633    
   3180000   304.61908     -860.14578      0             -850.10513      4874.0617    
   3190000   315.23317     -860.14831      0             -849.7578       4961.602     
   3200000   271.42473     -860.15061      0             -851.20409      4597.2138    
   3210000   275.69834     -860.14942      0             -851.06204      4632.9766    
   3220000   273.97663     -860.14604      0             -851.11541      4619.4848    
   3230000   290.15768     -860.14864      0             -850.58465      4753.2691    
   3240000   347.05238     -860.15062      0             -848.71131      5225.308     
   3250000   302.62164     -860.14746      0             -850.17264      4857.0055    
   3260000   299.70657     -860.14518      0             -850.26645      4833.3561    
   3270000   285.80325     -860.14946      0             -850.72901      4716.8703    
   3280000   270.24951     -860.15054      0             -851.24276      4587.4378    
   3290000   282.08392     -860.14733      0             -850.84947      4686.4652    
   3300000   305.22232     -860.14442      0             -850.08388      4879.3693    
   3310000   287.20534     -860.14941      0             -850.68274      4728.5425    
   3320000   289.67739     -860.15014      0             -850.60199      4748.9163    
   3330000   297.85184     -860.14726      0             -850.32967      4817.5078    
   3340000   289.0376      -860.14568      0             -850.61862      4744.6594    
   3350000   288.98242     -860.14736      0             -850.62211      4743.8547    
   3360000   312.35422     -860.15034      0             -849.85473      4937.251     
   3370000   323.22061     -860.14789      0             -849.4941       5028.0125    
   3380000   309.11027     -860.14599      0             -849.9573       4911.2548    
   3390000   292.75769     -860.14847      0             -850.49879      4774.9233    
   3400000   274.61894     -860.14948      0             -851.09767      4624.0071    
   3410000   317.32691     -860.14745      0             -849.68793      4979.1163    
   3420000   309.48073     -860.14597      0             -849.94507      4914.397     
   3430000   317.75862     -860.14847      0             -849.67472      4982.7068    
   3440000   285.13851     -860.14907      0             -850.75052      4711.5822    
   3450000   296.44011     -860.14548      0             -850.37442      4806.2341    
   3460000   290.8561      -860.14522      0             -850.55821      4760.0248    
   3470000   326.59975     -860.14798      0             -849.38282      5056.212     
   3480000   310.74553     -860.14799      0             -849.90541      4924.4099    
   3490000   265.55594     -860.14458      0             -851.3915       4549.9357    
   3500000   284.90502     -860.14565      0             -850.7548       4710.4235    
   3510000   317.45826     -860.14842      0             -849.68457      4980.1052    
   3520000   295.38903     -860.14773      0             -850.41132      4796.8965    
   3530000   322.36909     -860.14329      0             -849.51758      5022.1082    
   3540000   315.2066      -860.14323      0             -849.7536       4962.7214    
   3550000   301.58983     -860.14833      0             -850.20753      4848.3171    
   3560000   296.16274     -860.1472       0             -850.38528      4803.3902    
   3570000   298.71719     -860.14565      0             -850.29954      4825.0278    
   3580000   298.87816     -860.14533      0             -850.29391      4826.5733    
   3590000   315.6126      -860.14738      0             -849.74436      4965.0221    
   3600000   291.37415     -860.14837      0             -850.54429      4763.3535    
   3610000   301.95416     -860.1445       0             -850.19169      4852.2184    
   3620000   318.5384      -860.14431      0             -849.64486      4990.1113    
   3630000   273.46893     -860.14885      0             -851.13495      4614.6142    
   3640000   282.79771     -860.14942      0             -850.82803      4691.8886    
   3650000   296.77559     -860.14699      0             -850.36487      4808.6177    
   3660000   312.36308     -860.14551      0             -849.84961      4938.5031    
   3670000   306.80556     -860.14797      0             -850.03525      4891.7042    
   3680000   329.80041     -860.14878      0             -849.27812      5082.4177    
   3690000   279.48388     -860.14766      0             -850.9355       4664.8093    
   3700000   329.71515     -860.14114      0             -849.27328      5083.7335    
   3710000   276.69428     -860.14448      0             -851.02427      4642.4765    
   3720000   318.6257      -860.14522      0             -849.6429       4990.3637    
   3730000   286.55378     -860.14519      0             -850.69999      4724.0502    
   3740000   308.02101     -860.14575      0             -849.99296      4902.404     
   3750000   287.70321     -860.14629      0             -850.6632       4733.4162    
   3760000   325.52469     -860.14359      0             -849.41386      5048.0328    
   3770000   299.87797     -860.1462       0             -850.26182      4834.5505    
   3780000   295.09285     -860.14771      0             -850.42105      4794.5429    
   3790000   292.11164     -860.14492      0             -850.51653      4770.2908    
   3800000   289.57876     -860.14451      0             -850.59961      4749.3446    
   3810000   309.18737     -860.14886      0             -849.95763      4911.2984    
   3820000   313.39658     -860.14752      0             -849.81755      4946.5345    
   3830000   290.40898     -860.14413      0             -850.57186      4756.4004    
   3840000   282.7027      -860.14741      0             -850.82915      4691.6068    
   3850000   288.08955     -860.14959      0             -850.65378      4735.8083    
   3860000   313.77827     -860.14543      0             -849.80288      4950.03      
   3870000   312.09838     -860.14231      0             -849.85513      4936.7067    
   3880000   278.81253     -860.14495      0             -850.95492      4659.5079    
   3890000   283.30199     -860.14797      0             -850.80996      4695.7849    
   3900000   304.56906     -860.14498      0             -850.10598      4873.0573    
   3910000   292.55146     -860.14279      0             -850.4999       4773.9286    
   3920000   287.16848     -860.14557      0             -850.68011      4728.8811    
   3930000   312.84919     -860.1489       0             -849.83697      4941.5024    
   3940000   300.92454     -860.14461      0             -850.22573      4843.4178    
   3950000   270.62404     -860.13863      0             -851.2185       4593.1011    
   3960000   288.19685     -860.14425      0             -850.6449       4737.8396    
   3970000   259.91215     -860.15018      0             -851.58312      4501.7771    
   3980000   298.05082     -860.14441      0             -850.32025      4819.8049    
   3990000   289.17537     -860.13974      0             -850.60813      4746.9855    
   4000000   303.14783     -860.14423      0             -850.15208      4862.0031    
   4010000   310.5804      -860.14955      0             -849.91241      4922.5636    
   4020000   318.77585     -860.14498      0             -849.6377       4991.3753    
   4030000   288.84795     -860.13398      0             -850.61317      4745.0808    
   4040000   310.37096     -860.13906      0             -849.90882      4922.8917    
   4050000   323.31306     -860.14815      0             -849.49132      5028.5614    
   4060000   275.13167     -860.14105      0             -851.07235      4630.2187    
   4070000   304.87724     -860.1271       0             -850.07793      4880.2517    
   4080000   301.47622     -860.13457      0             -850.19751      4851.0362    
   4090000   270.39049     -860.14652      0             -851.23409      4590.6978    
   4100000   319.78683     -860.13526      0             -849.59465      5002.9549    
   4110000   328.75169     -860.12381      0             -849.28771      5079.2716    
   4120000   328.42326     -860.14207      0             -849.3168       5072.7108    
   4130000   278.40569     -860.14967      0             -850.97305      4655.6714    
   4140000   310.13493     -860.14233      0             -849.91987      4920.7509    
   4150000   280.36809     -860.13602      0             -850.89471      4675.25      
   4160000   298.32307     -860.14289      0             -850.30976      4822.7136    
   4170000   313.22622     -860.14876      0             -849.82441      4944.9618    
   4180000   305.73289     -860.14243      0             -850.06507      4884.1578    
   4190000   270.90624     -860.13691      0             -851.20748      4597.6376    
   4200000   295.95405     -860.14078      0             -850.38574      4805.1199    
   4210000   301.27386     -860.14399      0             -850.2136       4848.1061    
   4220000   293.71128     -860.13777      0             -850.45665      4786.2404    
   4230000   284.46264     -860.13974      0             -850.76347      4709.4824    
   4240000   317.56101     -860.14425      0             -849.67702      4983.0979    
   4250000   301.46869     -860.14628      0             -850.20947      4848.3971    
   4260000   295.02361     -860.14357      0             -850.41919      4795.0031    
   4270000   258.19583     -860.14398      0             -851.6335       4488.9858    
   4280000   286.57721     -860.14799      0             -850.70202      4724.226     
   4290000   316.53971     -860.14623      0             -849.71266      4972.971     
   4300000   298.99725     -860.14206      0             -850.28672      4827.8984    
   4310000   299.56437     -860.13964      0             -850.2656       4833.3508    
   4320000   314.31615     -860.14064      0             -849.78036      4955.5103    
   4330000   302.28227     -860.13813      0             -850.1745       4855.4798    
   4340000   315.92919     -860.13647      0             -849.72303      4970.3525    
   4350000   326.54489     -860.13785      0             -849.3745       5060.5973    
   4360000   295.50553     -860.12874      0             -850.38849      4808.9341    
   4370000   281.23586     -860.12422      0             -850.85431      4692.0217    
   4380000   280.04026     -860.12932      0             -850.89882      4679.9044    
   4390000   292.49765     -860.13405      0             -850.49293      4781.2101    
   4400000   278.58581     -860.12913      0             -850.94657      4668.4685    
   4410000   275.28949     -860.11854      0             -851.04463      4646.4955    
   4420000   327.37261     -860.1236       0             -849.33297      5074.5935    
   4430000   281.50722     -860.11985      0             -850.841        4698.2985    
   4440000   303.10243     -860.12663      0             -850.13597      4873.3475    
   4450000   307.63863     -860.11796      0             -849.97778      4912.9477    
   4460000   297.38042     -860.11886      0             -850.31681      4826.7592    
   4470000   297.99806     -860.12035      0             -850.29793      4835.3437    
   4480000   320.45339     -860.12615      0             -849.56358      5016.7788    
   4490000   285.97291     -860.12374      0             -850.69769      4730.8834    
   4500000   302.86526     -860.12935      0             -850.1465       4868.6568    
   4510000   316.07256     -860.13281      0             -849.71463      4974.4491    
   4520000   286.02377     -860.12912      0             -850.7014       4727.4741    
   4530000   306.22243     -860.13861      0             -850.04511      4889.087     
   4540000   305.80104     -860.13644      0             -850.05683      4885.0437    
   4550000   307.907       -860.13184      0             -849.98281      4904.3714    
   4560000   333.77282     -860.13857      0             -849.13697      5116.7203    
   4570000   273.34863     -860.13833      0             -851.12839      4615.3616    
   4580000   299.152       -860.12411      0             -850.26366      4833.6068    
   4590000   270.16761     -860.12799      0             -851.22291      4592.2854    
   4600000   267.35932     -860.13763      0             -851.32511      4567.6096    
   4610000   283.76165     -860.13724      0             -850.78408      4703.7813    
   4620000   283.89743     -860.12951      0             -850.77187      4706.3123    
   4630000   298.2478      -860.13285      0             -850.30221      4824.7348    
   4640000   311.87088     -860.1439       0             -849.86422      4935.8449    
   4650000   298.92643     -860.13267      0             -850.27966      4830.7977    
   4660000   302.60984     -860.11307      0             -850.13865      4870.278     
   4670000   297.10438     -860.12758      0             -850.33463      4818.0473    
   4680000   265.36438     -860.11444      0             -851.36768      4558.4415    
   4690000   272.71514     -860.09667      0             -851.10762      4629.3139    
   4700000   288.50059     -860.11508      0             -850.60571      4751.2168    
   4710000   299.98999     -860.12759      0             -850.23952      4839.9247    
   4720000   287.52318     -860.12413      0             -850.64698      4737.6421    
   4730000   296.29634     -860.12358      0             -850.35726      4810.751     
   4740000   297.98201     -860.13179      0             -850.3099       4823.908     
   4750000   286.77999     -860.13298      0             -850.68033      4731.9353    
   4760000   290.91944     -860.13722      0             -850.54813      4763.3853    
   4770000   310.04961     -860.12854      0             -849.90889      4924.4271    
   4780000   286.81517     -860.13449      0             -850.68068      4730.572     
   4790000   289.5387      -860.13792      0             -850.59434      4751.6406    
   4800000   288.07347     -860.12721      0             -850.63192      4740.6374    
   4810000   264.79513     -860.13149      0             -851.40349      4546.1827    
   4820000   305.26789     -860.11958      0             -850.05754      4885.1441    
   4830000   298.69352     -860.12102      0             -850.27568      4829.461     
   4840000   263.73156     -860.13651      0             -851.44357      4535.7801    
   4850000   315.66529     -860.13492      0             -849.73017      4968.4266    
   4860000   301.32829     -860.12009      0             -850.18791      4852.5351    
   4870000   310.93151     -860.1122       0             -849.86348      4933.7786    
   4880000   300.54527     -860.13786      0             -850.23148      4843.4191    
   4890000   289.89902     -860.13486      0             -850.5794       4755.5178    
   4900000   305.90319     -860.10784      0             -850.02486      4893.8725    
   4910000   294.1729      -860.10936      0             -850.41303      4796.6531    
   4920000   307.51096     -860.13485      0             -849.99888      4901.8039    
   4930000   308.34233     -860.12195      0             -849.95857      4912.1629    
   4940000   309.62017     -860.09292      0             -849.88743      4931.0065    
   4950000   281.51639     -860.12364      0             -850.84448      4693.5241    
   4960000   291.28062     -860.12755      0             -850.52655      4771.9378    
   4970000   290.01071     -860.10491      0             -850.54577      4764.8057    
   4980000   299.58737     -860.12451      0             -850.24971      4838.7794    
   4990000   290.72164     -860.14126      0             -850.55868      4761.6289    
   5000000   277.02075     -860.08799      0             -850.95702      4660.7854    
   5010000   302.41183     -860.08838      0             -850.12048      4870.9686    
   5020000   302.81616     -860.13345      0             -850.15222      4862.9722    
   5030000   300.18955     -860.09053      0             -850.19588      4849.8325    
   5040000   308.51146     -860.07661      0             -849.90766      4920.7219    
   5050000   292.88811     -860.12483      0             -850.47085      4780.4587    
   5060000   299.87082     -860.11667      0             -850.23252      4840.356     
   5070000   296.65777     -860.06022      0             -850.28199      4828.077     
   5080000   311.98724     -860.1133       0             -849.82978      4942.2702    
   5090000   280.60727     -860.10708      0             -850.85789      4686.3186    
   5100000   276.7163      -860.08113      0             -850.96019      4659.9255    
   5110000   288.15861     -860.10205      0             -850.60396      4751.74      
   5120000   317.84176     -860.11541      0             -849.63892      4995.1835    
   5130000   281.59948     -860.07791      0             -850.79601      4704.0312    
   5140000   291.36864     -860.10381      0             -850.49991      4774.8539    
   5150000   266.19158     -860.0691       0             -851.29507      4575.6013    
   5160000   316.25684     -860.03624      0             -849.612        4998.3599    
   5170000   303.2102      -860.12217      0             -850.12795      4869.597     
   5180000   287.62105     -860.03494      0             -850.55457      4758.3579    
   5190000   279.89784     -860.05688      0             -850.83108      4693.168     
   5200000   304.65922     -860.12302      0             -850.08105      4881.5782    
   5210000   306.03051     -860.05268      0             -849.96551      4907.5051    
   5220000   302.12932     -860.07451      0             -850.11592      4870.5664    
   5230000   314.35197     -860.10932      0             -849.74785      4964.1621    
   5240000   302.19085     -860.04104      0             -850.08042      4878.2203    
   5250000   281.70772     -860.10481      0             -850.81935      4692.7858    
   5260000   295.42203     -860.0958       0             -850.35829      4807.4768    
   5270000   311.01884     -860.06915      0             -849.81755      4943.7505    
   5280000   295.54413     -860.09577      0             -850.35424      4808.5495    
   5290000   300.92837     -860.08764      0             -850.16864      4861.203     
   5300000   303.45427     -860.05332      0             -850.05106      4892.5304    
   5310000   316.50453     -860.11431      0             -849.6819       4979.4802    
   5320000   313.905       -860.00497      0             -849.65824      4981.4565    
   5330000   345.58092     -860.02687      0             -848.63606      5243.2939    
   5340000   304.32925     -860.09146      0             -850.06037      4884.7667    
   5350000   310.58679     -860.0761       0             -849.83874      4938.6912    
   5360000   294.32426     -860.0566       0             -850.35528      4809.5727    
   5370000   289.80311     -860.11328      0             -850.56099      4759.4973    
   5380000   291.9135      -860.0811       0             -850.45924      4782.7716    
   5390000   297.26273     -860.02837      0             -850.23019      4838.8571    
   5400000   319.48609     -860.09899      0             -849.56831      5009.3135    
   5410000   294.42855     -860.05366      0             -850.3489       4808.9159    
   5420000   290.37422     -860.01902      0             -850.4479       4781.1094    
   5430000   274.89664     -860.05615      0             -850.99519      4645.7904    
   5440000   313.26197     -859.98701      0             -849.66148      4978.08      
   5450000   297.60972     -860.06412      0             -850.2545       4837.3534    
   5460000   326.50085     -859.98988      0             -849.22798      5094.4384    
   5470000   295.10987     -859.92687      0             -850.19966      4845.8364    
   5480000   296.72279     -860.09174      0             -850.31136      4829.0768    
   5490000   283.77451     -860.05711      0             -850.70352      4732.0287    
   5500000   308.01823     -859.9532       0             -849.8005       4944.8144    
   5510000   323.84501     -860.03193      0             -849.35756      5065.0437    
   5520000   271.23874     -860.04343      0             -851.10304      4628.1586    
   5530000   266.26365     -859.97539      0             -851.19898      4594.682     
   5540000   327.37832     -860.03095      0             -849.24013      5091.0641    
   5550000   291.15765     -859.99843      0             -850.40148      4795.3595    
   5560000   305.19359     -859.94332      0             -849.88374      4916.2767    
   5570000   292.2626      -860.09506      0             -850.46169      4784.4477    
   5580000   289.86803     -860.04026      0             -850.48582      4779.7142    
   5590000   287.9719      -860.00511      0             -850.51318      4772.7906    
   5600000   325.05212     -860.0902       0             -849.37604      5061.7061    
   5610000   316.08614     -859.94836      0             -849.52974      5015.6549    
   5620000   282.86178     -859.96786      0             -850.64436      4740.5243    
   5630000   313.03761     -860.05702      0             -849.73889      4972.2757    
   5640000   303.18244     -859.97343      0             -849.98013      4903.5269    
   5650000   281.26012     -859.95874      0             -850.68803      4722.019     
   5660000   310.80096     -860.04039      0             -849.79597      4949.6219    
   5670000   302.41982     -860.00336      0             -850.0352       4891.7631    
   5680000   305.28001     -859.96223      0             -849.8998       4919.4641    
   5690000   311.54066     -859.94952      0             -849.68072      4981.3279    
   5700000   294.03293     -859.86517      0             -850.17345      4879.2434    
   5710000   303.87197     -859.89946      0             -849.88344      4947.3894    
   5720000   308.25485     -859.86195      0             -849.70145      4992.614     
   5730000   276.59148     -859.89567      0             -850.77885      4716.9696    
   5740000   320.1087      -859.98356      0             -849.43234      5046.242     
   5750000   293.98947     -859.92874      0             -850.23845      4846.3508    
   5760000   296.49687     -859.89257      0             -850.11964      4868.1697    
   5770000   309.96332     -859.98017      0             -849.76337      4958.8216    
   5780000   307.72932     -859.99312      0             -849.84995      4942.1799    
   5790000   304.49421     -859.84213      0             -849.80559      4979.4116    
   5800000   289.393       -859.84528      0             -850.3065       4873.1926    
   5810000   300.9531      -859.90928      0             -849.98947      4916.0691    
   5820000   292.73947     -859.92877      0             -850.27968      4848.1523    
   5830000   310.08511     -859.96194      0             -849.74112      4978.2765    
   5840000   301.92421     -859.95789      0             -850.00606      4908.4648    
   5850000   298.80526     -859.94162      0             -850.0926       4892.2541    
   5860000   295.63179     -859.91583      0             -850.17141      4867.3427    
   5870000   270.62074     -859.89801      0             -850.97799      4659.8423    
   5880000   307.98917     -859.96827      0             -849.81653      4954.2902    
   5890000   267.91762     -859.80683      0             -850.9759       4650.0924    
   5900000   301.15196     -859.90544      0             -849.97907      4916.0648    
   5910000   291.25084     -859.84518      0             -850.24517      4850.6682    
   5920000   276.6054      -859.8708       0             -850.75351      4730.0272    
   5930000   288.85637     -859.84199      0             -850.3209       4844.404     
   5940000   299.39324     -859.83593      0             -849.96753      4917.5642    
   5950000   302.2598      -859.92906      0             -849.96617      4926.4385    
   5960000   308.27157     -859.83525      0             -849.6742       4991.2364    
   5970000   287.45        -859.87581      0             -850.40107      4818.771     
   5980000   286.75326     -859.90448      0             -850.45271      4807.3196    
   5990000   316.58198     -859.90075      0             -849.46579      5066.0026    
   6000000   312.80992     -859.90442      0             -849.59379      5032.268     
   6010000   301.47943     -859.9444       0             -850.00723      4927.1717    
   6020000   314.12622     -859.90868      0             -849.55466      5038.932     
   6030000   300.67827     -859.91654      0             -850.00578      4928.9428    
   6040000   319.85258     -859.91161      0             -849.36884      5088.3251    
   6050000   284.59452     -859.93866      0             -850.55805      4785.4387    
   6060000   308.53344     -859.85945      0             -849.68977      4979.0968    
   6070000   307.84261     -859.88527      0             -849.73837      4993.3198    
   6080000   292.02456     -859.801        0             -850.17548      4871.7328    
   6090000   312.06733     -859.85953      0             -849.57337      5038.1847    
   6100000   303.0032      -859.87943      0             -849.89204      4962.3545    
   6110000   299.45876     -859.79342      0             -849.92286      4931.1633    
   6120000   295.91741     -859.91749      0             -850.16366      4886.151     
   6130000   303.22312     -859.83213      0             -849.83749      4950.5746    
   6140000   296.93069     -859.85         0             -850.06277      4919.0435    
   6150000   293.54593     -859.86578      0             -850.19011      4895.588     
   6160000   318.95418     -859.87808      0             -849.36492      5084.9332    
   6170000   301.88731     -859.88905      0             -849.93844      4945.1339    
   6180000   315.00157     -859.88349      0             -849.50061      5041.9826    
   6190000   291.79728     -859.86189      0             -850.24387      4855.5986    
   6200000   330.28896     -859.77251      0             -848.88575      5194.8729    
   6210000   324.08698     -859.77727      0             -849.09493      5176.1009    
   6220000   290.1718      -859.82134      0             -850.25689      4861.6066    
   6230000   307.74372     -859.86189      0             -849.71825      4988.3135    
   6240000   297.83935     -859.85987      0             -850.04269      4912.9795    
   6250000   281.00906     -859.80363      0             -850.5412       4792.8957    
   6260000   282.10531     -859.86454      0             -850.56597      4775.5453    
   6270000   325.86087     -859.776        0             -849.03519      5178.3181    
   6280000   290.26695     -859.66599      0             -850.0984       4932.6541    
   6290000   291.85392     -859.74715      0             -850.12726      4923.1092    
   6300000   289.6234      -859.79282      0             -850.24645      4857.1728    
   6310000   292.85629     -859.79758      0             -850.14464      4892.0078    
   6320000   291.57168     -859.86802      0             -850.25742      4868.9179    
   6330000   294.4965      -859.82037      0             -850.11337      4897.721     
   6340000   329.63098     -859.83737      0             -848.97229      5188.4761    
   6350000   289.88509     -859.75507      0             -850.20007      4879.8602    
   6360000   323.29684     -859.74195      0             -849.08566      5163.6427    
   6370000   264.71574     -859.69312      0             -850.96774      4701.7882    
   6380000   281.58684     -859.7601       0             -850.47862      4845.0371    
   6390000   307.67528     -859.67596      0             -849.53457      5065.5592    
   6400000   289.29415     -859.77653      0             -850.24101      4879.5172    
   6410000   282.3958      -859.75458      0             -850.44644      4851.4612    
   6420000   288.17505     -859.75042      0             -850.25178      4859.7134    
   6430000   306.53897     -859.75138      0             -849.64745      5025.7958    
   6440000   292.56344     -859.7569       0             -850.11362      4900.1891    
   6450000   279.77033     -859.65841      0             -850.43681      4808.074     
   6460000   289.94656     -859.68832      0             -850.1313       4893.9649    
   6470000   266.02645     -859.68122      0             -850.91263      4705.1517    
   6480000   301.42823     -859.66947      0             -849.734        5009.255     
   6490000   279.05258     -859.47718      0             -850.27923      4893.9358    
   6500000   318.63456     -859.5925       0             -849.08987      5154.6887    
   6510000   290.79704     -859.58878      0             -850.00372      4935.8477    
   6520000   279.10235     -859.547        0             -850.34741      4865.7255    
   6530000   308.1211      -859.58935      0             -849.43327      5074.4388    
   6540000   277.97596     -859.49221      0             -850.32975      4887.0094    
   6550000   293.47779     -859.47351      0             -849.80009      5032.069     
   6560000   293.80252     -859.51626      0             -849.83214      5016.4888    
   6570000   323.99277     -859.61634      0             -848.9371       5225.8199    
   6580000   270.14427     -859.6689       0             -850.76458      4768.5673    
   6590000   319.61828     -859.70123      0             -849.16619      5160.3173    
   6600000   280.01986     -859.75641      0             -850.52658      4808.8728    
   6610000   288.05844     -859.71942      0             -850.22463      4902.8537    
   6620000   314.59734     -859.67596      0             -849.30641      5116.6333    
   6630000   296.90293     -859.60602      0             -849.8197       5012.8663    
   6640000   284.28962     -859.56617      0             -850.1956       4906.7246    
   6650000   309.80909     -859.64742      0             -849.4357       5100.2855    
   6660000   278.19888     -859.59469      0             -850.42488      4842.3806    
   6670000   326.81348     -859.67725      0             -848.90504      5226.6573    
   6680000   307.10161     -859.71892      0             -849.59644      5056.4816    
   6690000   303.34607     -859.71691      0             -849.71822      5035.2204    
   6700000   294.88092     -859.72663      0             -850.00696      4945.0526    
   6710000   317.80709     -859.68134      0             -849.20599      5140.0058    
   6720000   295.20883     -859.6961       0             -849.96562      4967.8243    
   6730000   312.99408     -859.59291      0             -849.2762       5143.5693    
   6740000   308.87519     -859.55595      0             -849.37501      5126.172     
   6750000   320.36027     -859.58966      0             -849.03016      5204.4679    
   6760000   286.13439     -859.64235      0             -850.21097      4903.4466    
   6770000   333.48164     -859.62961      0             -848.63761      5301.5344    
   6780000   283.04425     -859.59575      0             -850.26624      4888.2136    
   6790000   279.13741     -859.50636      0             -850.30562      4936.9406    
   6800000   326.68559     -859.53629      0             -848.7683       5281.9682    
   6810000   282.52599     -859.63614      0             -850.32371      4884.9079    
   6820000   314.76446     -859.62179      0             -849.24673      5161.911     
   6830000   285.44377     -859.66116      0             -850.25256      4897.4627    
   6840000   332.48296     -859.55533      0             -848.59625      5332.6177    
   6850000   294.70825     -859.68794      0             -849.97396      4959.99      
   6860000   298.54146     -859.64931      0             -849.80899      5012.3662    
   6870000   272.57242     -859.57938      0             -850.59502      4818.9514    
   6880000   294.21237     -859.59371      0             -849.89608      4974.9287    
   6890000   310.91305     -859.55182      0             -849.30371      5138.6975    
   6900000   314.93258     -859.46248      0             -849.08188      5155.5065    
   6910000   303.3272      -859.59775      0             -849.59968      5078.7709    
   6920000   276.57446     -859.56656      0             -850.4503       4846.3174    
   6930000   300.28196     -859.4341       0             -849.53641      5085.7156    
   6940000   271.32439     -859.59289      0             -850.64967      4825.2942    
   6950000   297.99287     -859.5538       0             -849.73156      5069.6508    
   6960000   308.05319     -859.52059      0             -849.36674      5128.2043    
   6970000   333.35833     -859.64173      0             -848.6538       5332.3489    
   6980000   275.40491     -859.55701      0             -850.4793       4823.701     
   6990000   320.89884     -859.49068      0             -848.91343      5228.3542    
   7000000   312.15445     -859.51791      0             -849.22888      5157.0636    
   7010000   292.06906     -859.55239      0             -849.92541      4998.0528    
   7020000   324.22194     -859.40082      0             -848.71403      5323.3692    
   7030000   310.74433     -859.49985      0             -849.25731      5181.5278    
   7040000   298.89143     -859.50518      0             -849.65332      5079.5052    
   7050000   285.50459     -859.50251      0             -850.0919       4954.6141    
   7060000   296.6088      -859.52126      0             -849.74464      5070.6962    
   7070000   294.12478     -859.50872      0             -849.81398      5026.0275    
   7080000   312.83628     -859.44907      0             -849.13757      5203.9964    
   7090000   290.00034     -859.52421      0             -849.96541      4975.9575    
   7100000   304.99924     -859.5423       0             -849.48912      5113.4042    
   7110000   263.62452     -859.50708      0             -850.81766      4780.9601    
   7120000   286.93958     -859.49698      0             -850.03907      4971.1489    
   7130000   307.72734     -859.46334      0             -849.32024      5152.8458    
   7140000   276.61534     -859.55171      0             -850.4341       4874.0501    
   7150000   297.32826     -859.51089      0             -849.71055      5077.4198    
   7160000   299.91453     -859.50414      0             -849.61856      5079.698     
   7170000   279.23436     -859.43971      0             -850.23578      4924.9106    
   7180000   310.98344     -859.46598      0             -849.21555      5177.3671    
   7190000   309.22443     -859.43379      0             -849.24134      5173.7996    
   7200000   266.31398     -859.3419       0             -850.56384      4814.2305    
   7210000   313.16769     -859.37673      0             -849.05431      5198.0682    
   7220000   326.47324     -859.25597      0             -848.49498      5399.1569    
   7230000   297.02434     -859.22145      0             -849.43113      5137.0437    
   7240000   308.47583     -859.15886      0             -848.99108      5322.3887    
   7250000   310.68064     -859.23824      0             -848.9978       5300.4516    
   7260000   294.24382     -859.31349      0             -849.61482      5132.9249    
   7270000   292.46351     -859.22121      0             -849.58122      5112.0168    
   7280000   317.37154     -859.32257      0             -848.86158      5341.2149    
   7290000   305.59618     -859.23136      0             -849.1585       5220.7932    
   7300000   284.7308      -859.29373      0             -849.90862      5035.2925    
   7310000   294.28041     -859.31281      0             -849.61293      5156.764     
   7320000   312.69608     -859.1226       0             -848.81572      5329.5993    
   7330000   312.0217      -859.23635      0             -848.9517       5278.7158    
   7340000   268.00373     -859.27402      0             -850.44026      4912.3442    
   7350000   292.5049      -859.33611      0             -849.69476      5116.165     
   7360000   314.21027     -859.20465      0             -848.84786      5325.484     
   7370000   310.24533     -859.15114      0             -848.92504      5328.9099    
   7380000   298.28395     -859.33871      0             -849.50687      5154.2596    
   7390000   283.22504     -859.20844      0             -849.87296      5062.7944    
   7400000   312.19209     -859.26414      0             -848.97388      5318.3233    
   7410000   278.62341     -859.23633      0             -850.05253      5031.1088    
   7420000   319.36216     -859.1399       0             -848.6133       5404.8595    
   7430000   274.24064     -859.20262      0             -850.16328      4977.4958    
   7440000   295.24591     -859.12295      0             -849.39125      5240.4361    
   7450000   319.09725     -859.08317      0             -848.5653       5414.015     
   7460000   313.77873     -859.06814      0             -848.72557      5376.1291    
   7470000   306.50745     -859.04587      0             -848.94298      5349.097     
   7480000   294.80228     -859.17913      0             -849.46205      5173.2968    
   7490000   277.34278     -859.12223      0             -849.98064      5064.2443    
   7500000   283.12763     -859.18222      0             -849.84995      5081.3416    
   7510000   300.05438     -859.06282      0             -849.17263      5316.9608    
   7520000   324.49506     -859.04413      0             -848.34834      5511.1988    
   7530000   298.74135     -859.15397      0             -849.30705      5204.3656    
   7540000   307.87638     -859.02116      0             -848.87314      5371.6024    
   7550000   306.69572     -858.97626      0             -848.86716      5373.6382    
   7560000   319.58095     -859.03324      0             -848.49943      5477.2407    
   7570000   328.30688     -859.09041      0             -848.26897      5475.8761    
   7580000   300.92935     -858.99137      0             -849.07233      5321.7114    
   7590000   291.90366     -858.93314      0             -849.31161      5260.7952    
   7600000   315.85239     -858.89308      0             -848.48217      5444.918     
   7610000   290.54333     -858.91666      0             -849.33997      5279.3026    
   7620000   319.85631     -858.86601      0             -848.32311      5483.1353    
   7630000   301.33389     -859.02547      0             -849.0931       5286.8621    
   7640000   302.58132     -859.0812       0             -849.10771      5276.4142    
   7650000   268.94991     -858.98806      0             -850.12311      5069.557     
   7660000   304.5689      -859.02466      0             -848.98566      5369.7444    
   7670000   311.24733     -858.8959       0             -848.63677      5446.4549    
   7680000   293.7789      -858.95332      0             -849.26997      5298.355     
   7690000   338.32216     -858.99536      0             -847.84381      5621.6732    
   7700000   294.32643     -858.79647      0             -849.09508      5343.7009    
   7710000   306.93672     -858.78778      0             -848.67073      5467.1       
   7720000   301.73388     -858.78659      0             -848.84104      5449.7229    
   7730000   311.60555     -859.00682      0             -848.73589      5395.0272    
   7740000   297.06055     -858.734        0             -848.94249      5361.1602    
   7750000   303.58434     -858.91953      0             -848.91298      5407.5158    
   7760000   301.81188     -858.82243      0             -848.87431      5458.1677    
   7770000   293.00682     -858.82098      0             -849.16309      5406.3041    
   7780000   284.67056     -858.82944      0             -849.44632      5299.869     
   7790000   298.74969     -858.87169      0             -849.0245       5333.9149    
   7800000   269.7147      -858.99505      0             -850.1049       5088.5972    
   7810000   297.98503     -858.82567      0             -849.00369      5404.4833    
   7820000   292.67358     -858.81979      0             -849.17288      5354.9137    
   7830000   287.84515     -858.88722      0             -849.39946      5294.33      
   7840000   293.89753     -858.7701       0             -849.08284      5375.7561    
   7850000   338.56561     -858.54331      0             -847.38374      5848.6169    
   7860000   301.90524     -858.80516      0             -848.85396      5449.5932    
   7870000   279.20566     -858.74594      0             -849.54295      5245.4865    
   7880000   272.53954     -858.8224       0             -849.83913      5218.8908    
   7890000   283.18974     -858.85989      0             -849.52558      5243.5666    
   7900000   297.55672     -858.58305      0             -848.77518      5537.0897    
   7910000   283.49632     -858.73477      0             -849.39036      5333.6686    
   7920000   304.55766     -858.55045      0             -848.51182      5596.0143    
   7930000   305.39916     -858.69819      0             -848.63183      5501.4854    
   7940000   306.37451     -858.59371      0             -848.49519      5613.845     
   7950000   306.05024     -858.56212      0             -848.47429      5635.1989    
   7960000   320.85671     -858.50737      0             -847.9315       5710.0046    
   7970000   304.01957     -858.71785      0             -848.69696      5474.0799    
   7980000   307.36995     -858.49079      0             -848.35946      5614.108     
   7990000   330.81014     -858.47474      0             -847.5708       5848.6183    
   8000000   313.10562     -858.5205       0             -848.20012      5640.9058    
   8010000   293.51019     -858.51059      0             -848.8361       5470.5415    
   8020000   296.51834     -858.50376      0             -848.73012      5585.7336    
   8030000   305.38118     -858.59365      0             -848.52788      5562.7567    
   8040000   288.39557     -858.5746       0             -849.06869      5427.1805    
   8050000   314.22966     -858.46398      0             -848.10655      5708.9766    
   8060000   279.5072      -858.534        0             -849.32107      5379.0244    
   8070000   299.73965     -858.54356      0             -848.66374      5600.5755    
   8080000   328.91975     -858.37318      0             -847.53154      5893.8619    
   8090000   284.61246     -858.4262       0             -849.04499      5587.3815    
   8100000   299.7939      -858.48342      0             -848.60182      5649.2747    
   8110000   308.6496      -858.5319       0             -848.35839      5623.7415    
   8120000   289.84901     -858.43154      0             -848.87772      5503.6231    
   8130000   301.46243     -858.24648      0             -848.30987      5740.8502    
   8140000   308.56085     -858.34015      0             -848.16957      5805.844     
   8150000   288.11025     -858.43767      0             -848.94117      5522.266     
   8160000   277.61711     -858.56503      0             -849.4144       5370.2661    
   8170000   294.38412     -858.3357       0             -848.63241      5657.7571    
   8180000   318.65389     -858.13984      0             -847.63658      5962.6199    
   8190000   312.02518     -858.36929      0             -848.08453      5784.2761    
   8200000   306.57254     -858.17156      0             -848.06651      5843.2729    
   8210000   326.44047     -858.22023      0             -847.46032      5993.7945    
   8220000   313.31233     -858.36637      0             -848.03918      5795.1696    
   8230000   312.99544     -858.30726      0             -847.99052      5812.012     
   8240000   331.02342     -858.15544      0             -847.24446      6086.9748    
   8250000   329.61781     -858.11999      0             -847.25534      6079.1313    
   8260000   323.84478     -858.1774       0             -847.50304      5970.5333    
   8270000   298.46605     -858.27087      0             -848.43303      5784.5109    
   8280000   287.49583     -858.40498      0             -848.92873      5528.0269    
   8290000   296.75227     -858.34384      0             -848.56249      5672.0413    
   8300000   318.48071     -858.26628      0             -847.76873      5889.4846    
   8310000   289.77137     -858.26919      0             -848.71793      5647.1913    
   8320000   300.42825     -858.33489      0             -848.43238      5741.1428    
   8330000   303.15343     -858.08813      0             -848.09579      5898.0086    
   8340000   315.02438     -858.05369      0             -847.67007      6034.7708    
   8350000   301.9192      -858.1915       0             -848.23984      5818.8724    
   8360000   335.62519     -858.19827      0             -847.13562      6002.9947    
   8370000   316.57749     -858.05544      0             -847.62063      5987.6969    
   8380000   288.43574     -858.10658      0             -848.59935      5725.2855    
   8390000   310.88398     -858.0883       0             -847.84114      5893.3139    
   8400000   308.14565     -858.18933      0             -848.03244      5876.3101    
   8410000   298.84191     -858.12526      0             -848.27503      5753.6188    
   8420000   299.56554     -858.05822      0             -848.18414      5869.9154    
   8430000   295.1589      -857.98489      0             -848.25605      5834.1912    
   8440000   293.7494      -858.07709      0             -848.39472      5755.5577    
   8450000   302.72976     -857.92837      0             -847.94999      5876.8647    
   8460000   296.11888     -858.14948      0             -848.38901      5712.1404    
   8470000   291.64608     -858.07874      0             -848.4657       5695.2404    
   8480000   297.37614     -858.14442      0             -848.34251      5797.6968    
   8490000   297.47927     -858.03893      0             -848.23362      5760.3221    
   8500000   282.68673     -858.1206       0             -848.80287      5640.6917    
   8510000   312.23316     -857.96059      0             -847.66897      6003.384     
   8520000   292.89132     -858.0189       0             -848.36481      5821.9644    
   8530000   296.63155     -857.96267      0             -848.1853       5827.8432    
   8540000   288.40019     -857.99831      0             -848.49226      5798.1409    
   8550000   323.61149     -858.04463      0             -847.37797      5972.2536    
   8560000   282.90855     -858.03847      0             -848.71342      5707.2842    
   8570000   316.53542     -857.88086      0             -847.44743      6090.137     
   8580000   302.36452     -857.79058      0             -847.82424      5989.4398    
   8590000   306.27035     -857.9508       0             -847.85572      6015.9428    
   8600000   300.00331     -857.89327      0             -848.00476      5948.4315    
   8610000   275.73257     -857.93566      0             -848.84715      5669.9632    
   8620000   282.8037      -857.86853      0             -848.54695      5811.2909    
   8630000   263.9016      -857.98701      0             -849.28847      5499.113     
   8640000   283.55256     -857.92394      0             -848.57767      5793.6393    
   8650000   286.77376     -858.13081      0             -848.67836      5657.6969    
   8660000   310.27741     -857.89058      0             -847.66342      6030.7538    
   8670000   289.35329     -857.91583      0             -848.37835      5815.1606    
   8680000   310.14706     -857.69199      0             -847.46913      6163.2196    
   8690000   301.90104     -857.73363      0             -847.78257      5978.1877    
   8700000   318.14721     -857.73979      0             -847.25323      6204.7955    
   8710000   286.34243     -858.00541      0             -848.56719      5742.4608    
   8720000   289.27607     -857.80617      0             -848.27124      6010.4985    
   8730000   299.88724     -857.83945      0             -847.95476      5950.0252    
   8740000   319.34453     -857.86744      0             -847.34141      6051.7958    
   8750000   312.01344     -857.88236      0             -847.59798      5997.567     
   8760000   296.89963     -857.99406      0             -848.20785      5799.5884    
   8770000   291.45149     -857.98136      0             -848.37473      5873.1255    
   8780000   302.73542     -857.7361       0             -847.75754      6026.6495    
   8790000   293.78813     -857.77669      0             -848.09304      5895.4199    
   8800000   312.1169      -857.85093      0             -847.56313      6007.4759    
   8810000   297.55843     -857.70357      0             -847.89565      6014.0765    
   8820000   284.30729     -857.74294      0             -848.37179      5909.5575    
   8830000   303.31815     -857.40081      0             -847.40304      6219.4279    
   8840000   301.82468     -857.67415      0             -847.72561      5960.5892    
   8850000   294.78797     -857.6846       0             -847.968        5959.1263    
   8860000   303.15494     -857.7237       0             -847.73131      6063.3555    
   8870000   341.60247     -857.44496      0             -846.18529      6631.9242    
   8880000   304.63328     -857.9372       0             -847.89608      5972.4368    
   8890000   327.35047     -857.33951      0             -846.5496       6518.6254    
   8900000   284.0216      -857.46389      0             -848.10216      5949.5539    
   8910000   297.23315     -857.40414      0             -847.60693      6150.002     
   8920000   302.40866     -857.64483      0             -847.67703      6102.4668    
   8930000   303.44678     -857.55576      0             -847.55375      6178.4166    
   8940000   329.72261     -857.11894      0             -846.25084      6624.9327    
   8950000   275.46457     -857.43851      0             -848.35883      5984.6503    
   8960000   314.11155     -857.54534      0             -847.19181      6233.3395    
   8970000   296.89841     -857.46014      0             -847.67397      6205.1114    
[...]
  97850000   265.4829      -850.37976      0             -841.62909      11636.899    
  97860000   297.50779     -850.44488      0             -840.63863      11261.528    
  97870000   294.55746     -850.44588      0             -840.73688      11483.909    
  97880000   307.52084     -851.23786      0             -841.10156      11187.521    
  97890000   301.9361      -850.72025      0             -840.76803      11449.817    
  97900000   287.84597     -850.28151      0             -840.79372      11233.121    
  97910000   275.72054     -849.81694      0             -840.72882      11820.011    
  97920000   281.46577     -850.98979      0             -841.71231      10746.154    
  97930000   286.11198     -850.53473      0             -841.1041       11648.508    
  97940000   288.40129     -850.05295      0             -840.54686      11692.91     
  97950000   271.50921     -850.77667      0             -841.82737      10693.042    
  97960000   304.89692     -850.3637       0             -840.31389      11533.789    
  97970000   316.64626     -850.7107       0             -840.27362      11566.411    
  97980000   271.38334     -850.19222      0             -841.24707      11334.896    
  97990000   277.15795     -850.68704      0             -841.55155      11282.607    
  98000000   323.43857     -850.27614      0             -839.61518      11891.452    
  98010000   280.71985     -850.13566      0             -840.88276      11363.56     
  98020000   271.3501      -850.66453      0             -841.72046      11384.188    
  98030000   311.17277     -850.46936      0             -840.21269      11655.507    
  98040000   312.39386     -849.54377      0             -839.24685      12405.72     
  98050000   297.21432     -850.85326      0             -841.05668      11115.929    
  98060000   275.97828     -850.73823      0             -841.64162      11091.428    
  98070000   311.33858     -850.13599      0             -839.87385      12102.547    
  98080000   334.44812     -850.54665      0             -839.52279      12193.342    
  98090000   293.87949     -850.15448      0             -840.46782      11248.194    
  98100000   293.36297     -850.74375      0             -841.07412      11378.737    
  98110000   312.62047     -849.72286      0             -839.41847      12216.584    
  98120000   270.00887     -850.87409      0             -841.97423      10521.874    
  98130000   285.55892     -851.04076      0             -841.62836      10994.985    
  98140000   312.66324     -850.52436      0             -840.21856      11462.52     
  98150000   290.28493     -850.59142      0             -841.02324      11249.552    
  98160000   281.97185     -850.24462      0             -840.95045      11521.419    
  98170000   310.26122     -851.42401      0             -841.19738      10816.762    
  98180000   296.74268     -851.44981      0             -841.66877      10174.224    
  98190000   315.01397     -850.50831      0             -840.12503      11454.65     
  98200000   283.69073     -850.39653      0             -841.04571      11363.503    
  98210000   298.89071     -850.5558       0             -840.70396      11485.395    
  98220000   302.05705     -851.05621      0             -841.10001      10767.699    
  98230000   285.47479     -850.00286      0             -840.59323      12134.799    
  98240000   311.99495     -851.03098      0             -840.74721      11127.149    
  98250000   327.18099     -850.53695      0             -839.75263      11759.405    
  98260000   282.71518     -851.30752      0             -841.98885      10921.526    
  98270000   297.54696     -851.41955      0             -841.61201      10576.849    
  98280000   290.6127      -850.62938      0             -841.0504       10878.178    
  98290000   285.78741     -850.91404      0             -841.4941       10979.425    
  98300000   286.00388     -850.20504      0             -840.77797      11612.354    
  98310000   292.94984     -851.28264      0             -841.62662      10720.786    
  98320000   307.61115     -850.20301      0             -840.06374      11609.209    
  98330000   302.7551      -850.10172      0             -840.12251      11937.394    
  98340000   333.29777     -849.32024      0             -838.3343       12868.641    
  98350000   312.15405     -851.00373      0             -840.71472      11388.396    
  98360000   298.7584      -850.41989      0             -840.57241      11684.435    
  98370000   308.01429     -850.31779      0             -840.16522      11500.326    
  98380000   277.20318     -849.83839      0             -840.7014       12066.12     
  98390000   299.03534     -850.62572      0             -840.76911      11439.87     
  98400000   333.74575     -850.86848      0             -839.86778      11115.663    
  98410000   286.47811     -850.68301      0             -841.24031      11382.982    
  98420000   312.61671     -850.70195      0             -840.39768      11632.626    
  98430000   302.21685     -850.57272      0             -840.61125      11089.539    
  98440000   280.65093     -851.20114      0             -841.95051      10847.641    
  98450000   292.36377     -850.9077       0             -841.271        11231.121    
  98460000   338.20667     -851.10245      0             -839.95471      11239.751    
  98470000   288.0852      -851.04289      0             -841.54722      11133.089    
  98480000   295.33556     -851.4173       0             -841.68265      10686.069    
  98490000   304.18797     -850.54865      0             -840.52221      11445.403    
  98500000   307.79229     -850.17465      0             -840.02941      11659.068    
  98510000   305.31355     -850.71621      0             -840.65267      11685.481    
  98520000   297.21727     -850.27483      0             -840.47815      11811.46     
  98530000   304.93371     -851.57318      0             -841.52216      10692.922    
  98540000   290.43671     -850.34986      0             -840.77667      11536.529    
  98550000   337.42093     -850.45182      0             -839.32998      11951.399    
  98560000   296.02566     -850.27251      0             -840.51511      11673.032    
  98570000   314.97356     -849.78229      0             -839.40034      12067.502    
  98580000   283.90079     -850.46924      0             -841.11149      11314.173    
  98590000   289.57774     -849.78846      0             -840.2436       11722.984    
  98600000   318.73765     -850.02528      0             -839.51927      11735.924    
  98610000   335.98815     -849.83107      0             -838.75645      12176.24     
  98620000   293.61303     -849.50545      0             -839.82757      11812.648    
  98630000   321.67147     -850.72789      0             -840.12517      11375.847    
  98640000   290.27735     -850.35235      0             -840.78442      11597.723    
  98650000   311.27295     -850.45927      0             -840.1993       11458.934    
  98660000   297.78097     -850.52292      0             -840.70766      11648.963    
  98670000   296.18419     -850.76598      0             -841.00336      11081.425    
  98680000   286.57803     -850.42291      0             -840.97691      11065.215    
  98690000   307.76541     -850.5292       0             -840.38484      11451.897    
  98700000   300.81814     -850.63686      0             -840.72149      11055.176    
  98710000   302.39492     -850.94278      0             -840.97544      10757.137    
  98720000   288.44568     -851.43735      0             -841.92979      10431.941    
  98730000   289.57267     -850.6073       0             -841.0626       11159.316    
  98740000   321.9608      -849.82876      0             -839.2165       12539.108    
  98750000   309.95847     -851.02451      0             -840.80786      11196.631    
  98760000   310.61327     -849.36569      0             -839.12747      13275.061    
  98770000   303.73623     -851.29338      0             -841.28183      10954.893    
  98780000   295.16225     -851.03215      0             -841.30321      11063.229    
  98790000   319.50846     -850.63041      0             -840.09899      11427.23     
  98800000   309.93807     -850.4752       0             -840.25923      11707.849    
  98810000   337.34397     -849.67893      0             -838.55962      12898.314    
  98820000   305.50111     -850.20769      0             -840.13797      11853.411    
  98830000   292.97525     -850.81574      0             -841.15888      11014.656    
  98840000   289.28244     -849.74618      0             -840.21105      11893.641    
  98850000   280.26186     -850.07293      0             -840.83513      11715.02     
  98860000   298.16086     -850.17252      0             -840.34474      11669.419    
  98870000   263.59927     -851.21939      0             -842.5308       10685.4      
  98880000   317.44427     -850.69851      0             -840.23512      11396.947    
  98890000   291.79821     -850.25484      0             -840.63678      11509.482    
  98900000   320.37685     -850.83927      0             -840.27922      11262.987    
  98910000   313.23917     -850.97824      0             -840.65346      11118.746    
  98920000   326.51658     -850.73877      0             -839.97634      11507.737    
  98930000   300.20966     -850.59363      0             -840.69832      11373.291    
  98940000   295.4483      -850.28042      0             -840.54205      11626.533    
  98950000   328.19546     -850.78555      0             -839.96779      11502.218    
  98960000   304.56245     -850.78371      0             -840.74493      11273.43     
  98970000   300.09714     -850.80709      0             -840.91549      11067.4      
  98980000   295.04623     -849.97757      0             -840.25245      11839.76     
  98990000   331.31457     -851.40932      0             -840.48875      11033.744    
  99000000   315.02617     -850.84177      0             -840.45809      11254.958    
  99010000   298.41835     -850.27746      0             -840.44119      11711.318    
  99020000   293.61263     -850.62897      0             -840.95111      11163.435    
  99030000   287.55642     -850.18656      0             -840.70831      11515.607    
  99040000   330.56124     -851.13156      0             -840.23582      11148.677    
  99050000   294.08799     -850.79752      0             -841.10398      10774.72     
  99060000   315.12261     -849.86909      0             -839.48222      12260.318    
  99070000   287.29307     -851.14498      0             -841.67542      10764.36     
  99080000   269.40783     -849.94276      0             -841.06272      11608.497    
  99090000   321.50016     -850.2309       0             -839.63382      11742.917    
  99100000   304.79182     -850.43697      0             -840.39063      11576.069    
  99110000   308.94833     -848.79997      0             -838.61662      12947.919    
  99120000   286.08223     -849.75632      0             -840.32667      12146.5      
  99130000   299.68591     -850.71244      0             -840.83439      11331.079    
  99140000   305.69624     -850.81242      0             -840.73626      11314.351    
  99150000   278.31773     -850.04852      0             -840.87479      11837.682    
  99160000   306.1688      -850.24001      0             -840.14827      12013.876    
  99170000   286.883       -849.80914      0             -840.35309      12009.909    
  99180000   295.69609     -850.71796      0             -840.97142      11131.335    
  99190000   302.35684     -849.93003      0             -839.96395      12108.04     
  99200000   279.54964     -850.993        0             -841.77867      10787.95     
  99210000   316.32529     -850.61103      0             -840.18453      11645.807    
  99220000   312.59407     -851.48919      0             -841.18567      10741.977    
  99230000   305.66742     -850.096        0             -840.02079      11460.939    
  99240000   317.52459     -849.42992      0             -838.96389      12721.324    
  99250000   319.54567     -849.9995       0             -839.46685      12052.138    
  99260000   296.94461     -850.59542      0             -840.80773      11142.807    
  99270000   317.68183     -850.88039      0             -840.40918      11056.912    
  99280000   311.99987     -850.74369      0             -840.45975      11201.873    
  99290000   290.66392     -850.65982      0             -841.07915      11143.692    
  99300000   278.40713     -849.88379      0             -840.70712      11701.681    
  99310000   283.53031     -850.36606      0             -841.02052      11153.742    
  99320000   307.87121     -849.61476      0             -839.46692      12452.053    
  99330000   337.21457     -850.11661      0             -839.00157      12115.842    
  99340000   290.04526     -849.71358      0             -840.1533       12418.931    
  99350000   287.47362     -851.07023      0             -841.59471      10974.512    
  99360000   280.37901     -850.91635      0             -841.67468      10912.042    
  99370000   306.77608     -850.3985       0             -840.28675      11766.538    
  99380000   307.42246     -850.51659      0             -840.38354      11272.342    
  99390000   284.46439     -850.68764      0             -841.31131      11058.435    
  99400000   307.12406     -850.55696      0             -840.43374      11655.929    
  99410000   291.93335     -850.52993      0             -840.90741      11535.793    
  99420000   315.27481     -850.71878      0             -840.3269       11481.234    
  99430000   301.02593     -850.96825      0             -841.04603      11143.564    
  99440000   289.10263     -850.16397      0             -840.63476      11501.064    
  99450000   300.95816     -850.68139      0             -840.7614       11162.154    
  99460000   295.62596     -850.43406      0             -840.68984      11417.107    
  99470000   260.12366     -850.84568      0             -842.27166      10734.723    
  99480000   310.5014      -850.62916      0             -840.39462      11648.832    
  99490000   291.4285      -849.77968      0             -840.17381      12164.256    
  99500000   275.9309      -851.25526      0             -842.16021      10583.545    
  99510000   284.2486      -850.18489      0             -840.81568      11478.441    
  99520000   278.57531     -850.30417      0             -841.12195      11224.584    
  99530000   279.91964     -850.73666      0             -841.51014      11016.808    
  99540000   330.06513     -850.66641      0             -839.78702      11663.387    
  99550000   295.6221      -851.01631      0             -841.27221      11086.796    
  99560000   287.27893     -850.71042      0             -841.24132      10963.97     
  99570000   306.34308     -850.9563       0             -840.85882      10987.855    
  99580000   312.02701     -851.09388      0             -840.80905      11086.345    
  99590000   291.64583     -850.89209      0             -841.27905      10752.906    
  99600000   315.85956     -850.22957      0             -839.81841      11907.359    
  99610000   317.82103     -850.74803      0             -840.27223      11706.943    
  99620000   294.85654     -850.02457      0             -840.3057       11895.939    
  99630000   303.40797     -849.2195       0             -839.21876      12632.66     
  99640000   277.04118     -849.87829      0             -840.74664      11762.333    
  99650000   297.53764     -850.35743      0             -840.55019      11752.442    
  99660000   300.98098     -851.24042      0             -841.31968      10613.285    
  99670000   303.30079     -851.54215      0             -841.54495      10757.432    
  99680000   301.6765      -850.05295      0             -840.10929      11764.245    
  99690000   300.55549     -849.17863      0             -839.27192      12865.51     
  99700000   298.78089     -850.76703      0             -840.91882      11143.792    
  99710000   263.74298     -850.67829      0             -841.98497      10735.43     
  99720000   267.00863     -850.62671      0             -841.82575      10897.515    
  99730000   310.46029     -851.11169      0             -840.8785       10738.004    
  99740000   321.38872     -850.6189       0             -840.0255       11126.198    
  99750000   306.3735      -850.60521      0             -840.50673      11353.187    
  99760000   307.95452     -850.84366      0             -840.69306      11118.419    
  99770000   282.18858     -850.30737      0             -841.00606      11440.952    
  99780000   278.33303     -850.23033      0             -841.0561       11453.275    
  99790000   287.26145     -851.01641      0             -841.54788      10816.534    
  99800000   278.46184     -850.42071      0             -841.24224      11452.501    
  99810000   292.75974     -850.32789      0             -840.67813      11413.694    
  99820000   296.87902     -850.68426      0             -840.89873      11004.776    
  99830000   297.86972     -850.43987      0             -840.62168      11427.743    
  99840000   286.42061     -851.09877      0             -841.65796      10968.999    
  99850000   319.86106     -850.61812      0             -840.07508      11335.356    
  99860000   313.94288     -849.89475      0             -839.54677      12195.626    
  99870000   311.46705     -849.647        0             -839.38063      12536.395    
  99880000   257.11734     -850.58165      0             -842.10672      11026.563    
  99890000   311.16445     -851.38683      0             -841.13043      10387.619    
  99900000   293.71344     -850.39971      0             -840.71852      11839.135    
  99910000   329.7337      -850.61102      0             -839.74256      11157.028    
  99920000   299.9964      -850.58596      0             -840.69768      10921.557    
  99930000   297.29513     -850.41149      0             -840.61224      11758.964    
  99940000   304.56293     -851.1815       0             -841.1427       10660.978    
  99950000   299.3359      -850.39855      0             -840.53203      11749.936    
  99960000   311.45774     -849.96546      0             -839.6994       12142.519    
  99970000   297.94378     -849.70619      0             -839.88556      12305.935    
  99980000   280.91762     -849.95469      0             -840.69527      12027.756    
  99990000   285.1865      -850.74365      0             -841.34353      11099.247    
 100000000   277.30612     -850.98615      0             -841.84577      10891.356    
Loop time of 7437.77 on 4 procs for 100000000 steps with 256 atoms

Performance: 580.819 ns/day, 0.041 hours/ns, 13444.884 timesteps/s
99.7% CPU use with 4 MPI tasks x 1 OpenMP threads

MPI task timing breakdown:
Section |  min time  |  avg time  |  max time  |%varavg| %total
---------------------------------------------------------------
Pair    | 5075.5     | 5085.3     | 5094.5     |  12.5 | 68.37
Neigh   | 193.86     | 194.22     | 194.75     |   2.3 |  2.61
Comm    | 1825.1     | 1834.1     | 1843.8     |  18.3 | 24.66
Output  | 0.094102   | 0.11549    | 0.17932    |  10.8 |  0.00
Modify  | 196.2      | 196.75     | 197.74     |   4.5 |  2.65
Other   |            | 127.2      |            |       |  1.71

Nlocal:             64 ave          68 max          60 min
Histogram: 1 0 0 0 0 2 0 0 0 1
Nghost:            706 ave         710 max         702 min
Histogram: 1 0 0 0 0 2 0 0 0 1
Neighs:           2440 ave        2580 max        2306 min
Histogram: 1 0 0 1 0 1 0 0 0 1

Total # of neighbors = 9760
Ave neighs/atom = 38.125
Neighbor list builds = 3554574
Dangerous builds = 0

next u
jump SELF myloop
Total wall time: 2:03:57
