LAMMPS (23 Jun 2022)
OMP_NUM_THREADS environment is not set. Defaulting to 1 thread. (src/comm.cpp:98)
  using 1 OpenMP thread(s) per MPI task
# 3d metal relaxaction testing parameters

#variable u loop 2 9
#label myloop

# initilizing EAM and boundry conditions

units		metal
boundary	p p p

#loop
variable u loop 2 9
label myloop

# reading data file containing the configuration

read_data Al_alloy.lmpdat
Reading data file ...
  orthogonal box = (0 0 0) to (16.184 16.184 16.184)
  1 by 2 by 2 MPI processor grid
  reading atoms ...
  256 atoms
  read_data CPU = 0.005 seconds

# defining potentials and other parameters

pair_style	eam/alloy
pair_coeff	* * Al.eam Al

# Delta t
variable t equal 0.0005*$u
variable t equal 0.0005*2
timestep $t
timestep 0.001

variable b equal 0.3*$u
variable b equal 0.3*2
neighbor	$b bin
neighbor	0.6 bin
neigh_modify	delay 5

# dumping configurations at timesteps
dump mydump all custom 2000000 confdump.$u.*.data id type x y z vx vy vz
dump mydump all custom 2000000 confdump.2.*.data id type x y z vx vy vz
dump_modify mydump sort id
# set numerical integrator
## NVE; default is velocity Verlet
fix 1 all nvt temp 300.0 300.0 $(100.0*dt)
fix 1 all nvt temp 300.0 300.0 0.10000000000000000555
thermo 10000

run 100000000
Neighbor list info ...
  update every 1 steps, delay 5 steps, check yes
  max neighbors/atom: 2000, page size: 100000
  master list distance cutoff = 6.88721
  ghost atom cutoff = 6.88721
  binsize = 3.443605, bins = 5 5 5
  1 neighbor lists, perpetual/occasional/extra = 1 0 0
  (1) pair eam/alloy, perpetual
      attributes: half, newton on
      pair build: half/bin/atomonly/newton
      stencil: half/bin/3d
      bin: standard
Per MPI rank memory allocation (min/avg/max) = 4.622 | 4.622 | 4.622 Mbytes
   Step          Temp          E_pair         E_mol          TotEng         Press     
         0   0             -860.15079      0             -860.15079      2342.81      
     10000   338.92274     -860.15079      0             -848.97944      5157.7362    
     20000   281.28014     -860.15079      0             -850.87942      4678.985     
     30000   316.5229      -860.15079      0             -849.71777      4971.6942    
     40000   293.36172     -860.15079      0             -850.4812       4779.3287    
     50000   327.27175     -860.15079      0             -849.36348      5060.9688    
     60000   269.87108     -860.15079      0             -851.25548      4584.227     
     70000   298.98931     -860.15079      0             -850.2957       4826.0687    
     80000   305.33047     -860.15079      0             -850.08669      4878.7353    
     90000   315.30226     -860.15079      0             -849.75801      4961.5561    
    100000   284.46052     -860.15079      0             -850.77459      4705.3997    
    110000   290.18376     -860.15079      0             -850.58594      4752.9341    
    120000   299.45203     -860.15079      0             -850.28045      4829.9118    
    130000   288.31535     -860.15079      0             -850.64753      4737.4161    
    140000   307.91185     -860.15079      0             -850.0016       4900.1749    
    150000   289.56071     -860.15079      0             -850.60648      4747.7594    
    160000   295.22043     -860.15079      0             -850.41993      4794.7663    
    170000   300.07853     -860.15079      0             -850.2598       4835.1153    
    180000   301.45786     -860.15079      0             -850.21434      4846.5713    
    190000   273.41396     -860.15079      0             -851.1387       4613.6524    
    200000   279.14961     -860.15079      0             -850.94965      4661.2899    
    210000   297.19494     -860.15079      0             -850.35485      4811.1656    
    220000   290.2576      -860.15079      0             -850.58351      4753.5474    
    230000   301.05314     -860.15079      0             -850.22768      4843.2099    
    240000   291.02778     -860.15079      0             -850.55812      4759.9441    
    250000   297.2023      -860.15079      0             -850.3546       4811.2267    
    260000   343.10791     -860.15079      0             -848.84149      5192.4962    
    270000   295.87057     -860.15079      0             -850.3985       4800.166     
    280000   300.75256     -860.15079      0             -850.23758      4840.7134    
    290000   264.98461     -860.15079      0             -851.41654      4543.6424    
    300000   295.45844     -860.15079      0             -850.41208      4796.7431    
    310000   300.08491     -860.15079      0             -850.25959      4835.1682    
    320000   283.82829     -860.15079      0             -850.79543      4700.1488    
    330000   269.61871     -860.15079      0             -851.2638       4582.1309    
    340000   307.5479      -860.15079      0             -850.0136       4897.1522    
    350000   315.55327     -860.15079      0             -849.74973      4963.6408    
    360000   313.77891     -860.15079      0             -849.80822      4948.9039    
    370000   310.97723     -860.15079      0             -849.90056      4925.6345    
    380000   306.71948     -860.15079      0             -850.04091      4890.2717    
    390000   309.259       -860.15079      0             -849.9572       4911.3637    
    400000   287.2228      -860.15079      0             -850.68354      4728.3419    
    410000   301.20196     -860.15079      0             -850.22277      4844.4459    
    420000   284.13572     -860.15079      0             -850.7853       4702.7021    
    430000   273.859       -860.15079      0             -851.12403      4617.3487    
    440000   300.27384     -860.15079      0             -850.25336      4836.7374    
    450000   312.20718     -860.15079      0             -849.86002      4935.8499    
    460000   283.48837     -860.15079      0             -850.80663      4697.3255    
    470000   308.65474     -860.15079      0             -849.97712      4906.345     
    480000   290.13177     -860.15079      0             -850.58766      4752.5024    
    490000   283.54518     -860.15079      0             -850.80476      4697.7973    
    500000   296.47551     -860.15079      0             -850.37856      4805.1903    
    510000   280.00097     -860.15079      0             -850.92158      4668.3609    
    520000   298.13495     -860.15079      0             -850.32386      4818.9728    
    530000   276.39156     -860.15079      0             -851.04055      4638.3829    
    540000   291.54259     -860.15079      0             -850.54116      4764.2199    
    550000   287.33995     -860.15079      0             -850.67968      4729.3149    
    560000   305.41097     -860.15079      0             -850.08404      4879.4039    
    570000   261.53576     -860.15079      0             -851.53022      4514.9979    
    580000   307.25054     -860.15079      0             -850.0234       4894.6824    
    590000   313.45084     -860.15079      0             -849.81903      4946.1791    
    600000   304.15037     -860.15079      0             -850.12559      4868.9339    
    610000   313.78341     -860.15079      0             -849.80807      4948.9412    
    620000   313.42817     -860.15079      0             -849.81978      4945.9909    
    630000   278.6754      -860.15079      0             -850.96528      4657.3513    
    640000   278.24844     -860.15079      0             -850.97935      4653.8052    
    650000   305.41212     -860.15079      0             -850.084        4879.4135    
    660000   307.74596     -860.15079      0             -850.00707      4898.7972    
    670000   288.93447     -860.15079      0             -850.62712      4742.5581    
    680000   286.94361     -860.15079      0             -850.69274      4726.023     
    690000   288.20305     -860.15079      0             -850.65123      4736.4833    
    700000   313.42659     -860.15079      0             -849.81983      4945.9777    
    710000   295.66994     -860.15079      0             -850.40511      4798.4996    
    720000   294.60527     -860.15079      0             -850.44021      4789.657     
    730000   294.24893     -860.15079      0             -850.45195      4786.6975    
    740000   292.96643     -860.15079      0             -850.49422      4776.0456    
    750000   296.46764     -860.15079      0             -850.37882      4805.125     
    760000   285.12469     -860.15079      0             -850.7527       4710.916     
    770000   283.54923     -860.15079      0             -850.80463      4697.831     
    780000   307.29996     -860.15079      0             -850.02177      4895.0929    
    790000   284.6874      -860.15079      0             -850.76711      4707.2841    
    800000   278.06459     -860.15079      0             -850.98541      4652.2783    
    810000   301.01735     -860.15079      0             -850.22886      4842.9127    
    820000   312.54716     -860.15079      0             -849.84882      4938.6736    
    830000   315.48796     -860.15079      0             -849.75188      4963.0985    
    840000   280.97458     -860.15079      0             -850.88949      4676.4472    
    850000   323.92696     -860.15079      0             -849.47372      5033.1886    
    860000   297.03403     -860.15079      0             -850.36015      4809.8291    
    870000   317.94183     -860.15079      0             -849.671        4983.4791    
    880000   293.0679      -860.15079      0             -850.49088      4776.8884    
    890000   287.75114     -860.15079      0             -850.66613      4732.73      
    900000   317.99647     -860.15079      0             -849.6692       4983.9329    
    910000   296.67944     -860.15079      0             -850.37184      4806.884     
    920000   303.49213     -860.15079      0             -850.14728      4863.4669    
    930000   293.54339     -860.15079      0             -850.47521      4780.8376    
    940000   329.25997     -860.15079      0             -849.29794      5077.482     
    950000   308.67553     -860.15079      0             -849.97643      4906.5177    
    960000   299.65068     -860.15079      0             -850.2739       4831.5617    
    970000   304.75258     -860.15079      0             -850.10574      4873.9357    
    980000   317.78316     -860.15079      0             -849.67623      4982.1612    
    990000   316.92698     -860.15079      0             -849.70445      4975.0503    
   1000000   300.45722     -860.15079      0             -850.24732      4838.2605    
   1010000   291.20681     -860.15079      0             -850.55222      4761.431     
   1020000   309.397       -860.15079      0             -849.95265      4912.5099    
   1030000   291.85143     -860.15079      0             -850.53098      4766.785     
   1040000   325.8058      -860.15079      0             -849.41179      5048.7933    
   1050000   274.30797     -860.15079      0             -851.10923      4621.0776    
   1060000   285.68392     -860.15079      0             -850.73427      4715.5607    
   1070000   311.46243     -860.15079      0             -849.88457      4929.6644    
   1080000   295.26409     -860.15079      0             -850.41849      4795.1289    
   1090000   296.30948     -860.15079      0             -850.38403      4803.8114    
   1100000   296.64937     -860.15079      0             -850.37283      4806.6343    
   1110000   311.29753     -860.15079      0             -849.89001      4928.2947    
   1120000   312.61513     -860.15079      0             -849.84658      4939.2381    
   1130000   305.75743     -860.15079      0             -850.07262      4882.2814    
   1140000   292.24541     -860.15079      0             -850.51799      4770.0572    
   1150000   282.8672      -860.15079      0             -850.82711      4692.1664    
   1160000   275.1451      -860.15079      0             -851.08164      4628.0304    
   1170000   289.0565      -860.15079      0             -850.6231       4743.5717    
   1180000   300.19788     -860.15079      0             -850.25587      4836.1065    
   1190000   300.44621     -860.15079      0             -850.24768      4838.169     
   1200000   296.36432     -860.15079      0             -850.38223      4804.2668    
   1210000   291.07548     -860.15079      0             -850.55655      4760.3403    
   1220000   337.58701     -860.15079      0             -849.02347      5146.6423    
   1230000   285.33864     -860.15079      0             -850.74565      4712.693     
   1240000   294.79917     -860.15079      0             -850.43381      4791.2674    
   1250000   296.81279     -860.15079      0             -850.36744      4807.9916    
   1260000   297.29392     -860.15079      0             -850.35158      4811.9876    
   1270000   278.20243     -860.15079      0             -850.98087      4653.4231    
   1280000   291.07558     -860.15079      0             -850.55655      4760.3411    
   1290000   311.64115     -860.15079      0             -849.87868      4931.1487    
   1300000   297.11737     -860.15079      0             -850.3574       4810.5213    
   1310000   290.9439      -860.15079      0             -850.56089      4759.2475    
   1320000   315.92204     -860.15079      0             -849.73758      4966.7037    
   1330000   295.41769     -860.15079      0             -850.41343      4796.4046    
   1340000   298.83947     -860.15079      0             -850.30064      4824.8242    
   1350000   298.06806     -860.15079      0             -850.32607      4818.4173    
   1360000   303.69395     -860.15079      0             -850.14063      4865.1432    
   1370000   325.0846      -860.15079      0             -849.43557      5042.8034    
   1380000   273.21155     -860.15079      0             -851.14537      4611.9713    
   1390000   303.68603     -860.15079      0             -850.14089      4865.0774    
   1400000   308.68354     -860.15079      0             -849.97617      4906.5842    
   1410000   294.59059     -860.15079      0             -850.44069      4789.5351    
   1420000   300.64205     -860.15079      0             -850.24123      4839.7956    
   1430000   288.6283      -860.15079      0             -850.63722      4740.0152    
   1440000   304.66797     -860.15079      0             -850.10853      4873.2329    
   1450000   281.72953     -860.15079      0             -850.86461      4682.7175    
   1460000   310.50962     -860.15079      0             -849.91598      4921.7508    
   1470000   286.94395     -860.15079      0             -850.69273      4726.0259    
   1480000   300.13891     -860.15079      0             -850.25781      4835.6167    
   1490000   321.13972     -860.15079      0             -849.5656       5010.0392    
   1500000   335.01162     -860.15079      0             -849.10836      5125.2524    
   1510000   334.0314      -860.15079      0             -849.14067      5117.1112    
   1520000   286.51925     -860.15079      0             -850.70673      4722.4985    
   1530000   275.85084     -860.15079      0             -851.05838      4633.8919    
   1540000   316.80861     -860.15079      0             -849.70835      4974.0671    
   1550000   294.70692     -860.15079      0             -850.43686      4790.5013    
   1560000   323.15852     -860.15079      0             -849.49905      5026.8063    
   1570000   296.38212     -860.15079      0             -850.38164      4804.4147    
   1580000   314.60893     -860.15079      0             -849.78086      4955.7976    
   1590000   285.26086     -860.15079      0             -850.74821      4712.0469    
   1600000   295.71283     -860.15079      0             -850.4037       4798.8559    
   1610000   295.72828     -860.15079      0             -850.40319      4798.9842    
   1620000   303.09819     -860.15079      0             -850.16027      4860.1951    
   1630000   300.85355     -860.15079      0             -850.23425      4841.5522    
   1640000   274.26624     -860.15079      0             -851.11061      4620.731     
   1650000   278.71444     -860.15079      0             -850.96399      4657.6756    
   1660000   298.88494     -860.15079      0             -850.29914      4825.2019    
   1670000   293.81252     -860.15079      0             -850.46634      4783.0728    
   1680000   320.9109      -860.15079      0             -849.57314      5008.1387    
   1690000   290.93351     -860.15079      0             -850.56123      4759.1612    
   1700000   283.3994      -860.15079      0             -850.80957      4696.5866    
   1710000   338.95974     -860.15079      0             -848.97822      5158.0435    
   1720000   306.42435     -860.15079      0             -850.05063      4887.8205    
   1730000   305.51068     -860.15079      0             -850.08075      4880.2321    
   1740000   306.00463     -860.15079      0             -850.06447      4884.3345    
   1750000   290.89661     -860.15079      0             -850.56245      4758.8547    
   1760000   310.03956     -860.15079      0             -849.93147      4917.8467    
   1770000   294.18529     -860.15079      0             -850.45405      4786.1689    
   1780000   288.56422     -860.15079      0             -850.63933      4739.483     
   1790000   296.63739     -860.15079      0             -850.37322      4806.5348    
   1800000   275.4992      -860.15079      0             -851.06997      4630.9714    
   1810000   280.13542     -860.15079      0             -850.91715      4669.4776    
   1820000   291.29573     -860.15079      0             -850.54929      4762.1696    
   1830000   287.23492     -860.15079      0             -850.68314      4728.4425    
   1840000   279.21276     -860.15079      0             -850.94756      4661.8144    
   1850000   296.89934     -860.15079      0             -850.36459      4808.7104    
   1860000   297.67831     -860.15079      0             -850.33891      4815.1802    
   1870000   293.81289     -860.15079      0             -850.46632      4783.0759    
   1880000   307.16094     -860.15079      0             -850.02635      4893.9383    
   1890000   313.10748     -860.15079      0             -849.83035      4943.3273    
   1900000   296.39961     -860.15079      0             -850.38106      4804.5599    
   1910000   329.63537     -860.15079      0             -849.28557      5080.5999    
   1920000   295.2721      -860.15079      0             -850.41823      4795.1954    
   1930000   285.78969     -860.15079      0             -850.73078      4716.4391    
   1940000   303.52075     -860.15079      0             -850.14634      4863.7046    
   1950000   273.92599     -860.15079      0             -851.12182      4617.9051    
   1960000   309.07587     -860.15079      0             -849.96324      4909.8428    
   1970000   283.68686     -860.15079      0             -850.80009      4698.9741    
   1980000   307.45674     -860.15079      0             -850.0166       4896.395     
   1990000   314.15227     -860.15079      0             -849.79591      4952.0048    
   2000000   307.24376     -860.15079      0             -850.02362      4894.6262    
   2010000   301.83454     -860.15079      0             -850.20192      4849.6998    
   2020000   301.89097     -860.15079      0             -850.20006      4850.1685    
   2030000   308.10638     -860.15079      0             -849.99519      4901.7906    
   2040000   304.92368     -860.15079      0             -850.1001       4875.3567    
   2050000   308.73339     -860.15079      0             -849.97452      4906.9983    
   2060000   322.13883     -860.15079      0             -849.53266      5018.3373    
   2070000   275.69665     -860.15079      0             -851.06346      4632.6113    
   2080000   320.79236     -860.15079      0             -849.57704      5007.1542    
   2090000   283.72853     -860.15079      0             -850.79872      4699.3201    
   2100000   287.02669     -860.15079      0             -850.69001      4726.7131    
   2110000   280.29623     -860.15079      0             -850.91185      4670.8132    
   2120000   281.572       -860.15079      0             -850.8698       4681.4091    
   2130000   290.1549      -860.15079      0             -850.5869       4752.6945    
   2140000   308.45178     -860.15079      0             -849.98381      4904.6593    
   2150000   306.92936     -860.15079      0             -850.03399      4892.0149    
   2160000   304.74892     -860.15079      0             -850.10586      4873.9052    
   2170000   307.08515     -860.15079      0             -850.02885      4893.3088    
   2180000   295.01999     -860.15079      0             -850.42654      4793.1015    
   2190000   277.54936     -860.15079      0             -851.00239      4647.999     
   2200000   288.89466     -860.15079      0             -850.62844      4742.2275    
   2210000   297.06833     -860.15079      0             -850.35902      4810.114     
   2220000   289.19237     -860.15079      0             -850.61862      4744.7001    
   2230000   289.24487     -860.15079      0             -850.61689      4745.1362    
   2240000   295.3399      -860.15079      0             -850.41599      4795.7585    
   2250000   295.1164      -860.15079      0             -850.42336      4793.9022    
   2260000   275.08606     -860.15079      0             -851.08359      4627.54      
   2270000   284.87077     -860.15079      0             -850.76107      4708.8071    
   2280000   283.85214     -860.15079      0             -850.79464      4700.3468    
   2290000   314.20656     -860.15079      0             -849.79412      4952.4558    
   2300000   311.52025     -860.15079      0             -849.88267      4930.1445    
   2310000   323.51912     -860.15079      0             -849.48717      5029.8013    
   2320000   282.51758     -860.15079      0             -850.83863      4689.2626    
   2330000   288.38289     -860.15079      0             -850.6453       4737.977     
   2340000   281.72151     -860.15079      0             -850.86487      4682.6508    
   2350000   300.49299     -860.15079      0             -850.24614      4838.5575    
   2360000   264.95999     -860.15079      0             -851.41735      4543.4378    
   2370000   290.99564     -860.15079      0             -850.55918      4759.6772    
   2380000   304.33506     -860.15079      0             -850.1195       4870.4679    
   2390000   287.44908     -860.15079      0             -850.67608      4730.2212    
   2400000   304.67772     -860.15079      0             -850.1082       4873.3139    
   2410000   307.22138     -860.15079      0             -850.02436      4894.4403    
   2420000   309.70526     -860.15079      0             -849.94249      4915.0701    
   2430000   306.82273     -860.15079      0             -850.0375       4891.1292    
   2440000   286.82367     -860.15079      0             -850.6967       4725.0269    
   2450000   315.11577     -860.15079      0             -849.76415      4960.0072    
   2460000   258.73241     -860.15079      0             -851.62262      4491.7147    
   2470000   273.16764     -860.15079      0             -851.14682      4611.6066    
   2480000   278.89701     -860.15079      0             -850.95797      4659.1919    
   2490000   307.42442     -860.15079      0             -850.01767      4896.1266    
   2500000   295.20008     -860.15079      0             -850.4206       4794.5972    
   2510000   273.49783     -860.15079      0             -851.13594      4614.349     
   2520000   330.72212     -860.15079      0             -849.24975      5089.6259    
   2530000   292.08721     -860.15079      0             -850.5232       4768.7432    
   2540000   288.48414     -860.15079      0             -850.64197      4738.8179    
   2550000   288.06043     -860.15079      0             -850.65593      4735.2988    
   2560000   339.30845     -860.15079      0             -848.96673      5160.9398    
   2570000   298.422       -860.15079      0             -850.3144       4821.3569    
   2580000   289.74914     -860.15079      0             -850.60027      4749.3244    
   2590000   297.32676     -860.15079      0             -850.3505       4812.2604    
   2600000   302.45049     -860.15079      0             -850.18162      4854.8156    
   2610000   296.96998     -860.15079      0             -850.36226      4809.2971    
   2620000   272.31507     -860.15079      0             -851.17492      4604.5255    
   2630000   306.97258     -860.15079      0             -850.03256      4892.3738    
   2640000   287.80485     -860.15079      0             -850.66436      4733.1761    
   2650000   310.85431     -860.15079      0             -849.90462      4924.6136    
   2660000   287.9311      -860.15079      0             -850.6602       4734.2247    
   2670000   271.63506     -860.15079      0             -851.19733      4598.8777    
   2680000   303.56712     -860.15079      0             -850.14481      4864.0898    
   2690000   313.63046     -860.15079      0             -849.81311      4947.671     
   2700000   327.19424     -860.15079      0             -849.36603      5060.325     
   2710000   280.5024      -860.15079      0             -850.90506      4672.5255    
   2720000   266.27609     -860.15079      0             -851.37397      4554.3687    
   2730000   290.22037     -860.15079      0             -850.58474      4753.2382    
   2740000   312.48619     -860.15079      0             -849.85083      4938.1672    
   2750000   318.75056     -860.15079      0             -849.64434      4990.196     
   2760000   337.17001     -860.15079      0             -849.03722      5143.1789    
   2770000   281.08541     -860.15079      0             -850.88584      4677.3677    
   2780000   290.74973     -860.15079      0             -850.56729      4757.6348    
   2790000   300.85235     -860.15079      0             -850.23429      4841.5422    
   2800000   287.90807     -860.15079      0             -850.66095      4734.0334    
   2810000   298.35541     -860.15079      0             -850.3166       4820.8039    
   2820000   301.61439     -860.15079      0             -850.20918      4847.8714    
   2830000   268.87494     -860.15079      0             -851.28831      4575.9535    
   2840000   275.90177     -860.15079      0             -851.0567       4634.3149    
   2850000   257.13476     -860.15079      0             -851.67528      4478.4453    
   2860000   323.75744     -860.15079      0             -849.47931      5031.7807    
   2870000   332.05859     -860.15079      0             -849.20569      5100.726     
   2880000   332.71035     -860.15079      0             -849.18421      5106.1391    
   2890000   331.51497     -860.15079      0             -849.22361      5096.211     
   2900000   326.6768      -860.15079      0             -849.38309      5056.0274    
   2910000   325.8108      -860.15079      0             -849.41163      5048.8349    
   2920000   285.88796     -860.15079      0             -850.72754      4717.2553    
   2930000   298.66835     -860.15079      0             -850.30628      4823.403     
   2940000   298.93173     -860.15079      0             -850.2976       4825.5905    
   2950000   306.19052     -860.15079      0             -850.05834      4885.8785    
   2960000   294.31718     -860.15079      0             -850.4497       4787.2643    
   2970000   321.69393     -860.15079      0             -849.54733      5014.6422    
   2980000   300.58136     -860.15079      0             -850.24323      4839.2915    
   2990000   292.27724     -860.15079      0             -850.51694      4770.3216    
   3000000   292.31276     -860.15079      0             -850.51577      4770.6165    
   3010000   295.23789     -860.15079      0             -850.41935      4794.9112    
   3020000   332.43869     -860.15079      0             -849.19317      5103.8829    
   3030000   302.11874     -860.15079      0             -850.19255      4852.0602    
   3040000   329.17014     -860.15079      0             -849.3009       5076.7359    
   3050000   332.50869     -860.15079      0             -849.19086      5104.4643    
   3060000   305.8298      -860.15079      0             -850.07023      4882.8825    
   3070000   296.50861     -860.15079      0             -850.37747      4805.4653    
   3080000   300.94914     -860.15079      0             -850.2311       4842.3461    
   3090000   282.72713     -860.15079      0             -850.83173      4691.003     
   3100000   303.28002     -860.15079      0             -850.15427      4861.7053    
   3110000   306.8069      -860.15079      0             -850.03802      4890.9978    
   3120000   299.23277     -860.15079      0             -850.28768      4828.0908    
   3130000   295.16021     -860.15079      0             -850.42191      4794.2661    
   3140000   281.73021     -860.15079      0             -850.86459      4682.7231    
   3150000   286.65881     -860.15079      0             -850.70213      4723.6577    
   3160000   291.3666      -860.15079      0             -850.54696      4762.7582    
   3170000   302.97644     -860.15079      0             -850.16428      4859.1838    
   3180000   268.59569     -860.15079      0             -851.29752      4573.6342    
   3190000   296.07274     -860.15079      0             -850.39184      4801.8452    
   3200000   299.86567     -860.15079      0             -850.26682      4833.3474    
   3210000   300.49017     -860.15079      0             -850.24623      4838.5341    
   3220000   308.12798     -860.15079      0             -849.99448      4901.97      
   3230000   306.59667     -860.15079      0             -850.04495      4889.2517    
   3240000   272.74284     -860.15079      0             -851.16082      4608.0784    
   3250000   305.64687     -860.15079      0             -850.07626      4881.3631    
   3260000   290.39841     -860.15079      0             -850.57887      4754.7169    
   3270000   281.19826     -860.15079      0             -850.88212      4678.305     
   3280000   307.4533      -860.15079      0             -850.01672      4896.3665    
   3290000   294.79631     -860.15079      0             -850.43391      4791.2437    
   3300000   302.8469      -860.15079      0             -850.16855      4858.108     
   3310000   317.57936     -860.15079      0             -849.68295      4980.4686    
   3320000   315.95325     -860.15079      0             -849.73655      4966.9629    
   3330000   311.79521     -860.15079      0             -849.8736       4932.4283    
   3340000   290.82404     -860.15079      0             -850.56484      4758.252     
   3350000   294.08102     -860.15079      0             -850.45749      4785.3029    
   3360000   303.66441     -860.15079      0             -850.1416       4864.8978    
   3370000   294.92335     -860.15079      0             -850.42972      4792.2988    
   3380000   308.15151     -860.15079      0             -849.9937       4902.1654    
   3390000   297.98175     -860.15079      0             -850.32891      4817.7004    
   3400000   283.27833     -860.15079      0             -850.81356      4695.581     
   3410000   300.83164     -860.15079      0             -850.23498      4841.3702    
   3420000   299.88284     -860.15079      0             -850.26625      4833.49      
   3430000   296.51155     -860.15079      0             -850.37737      4805.4896    
   3440000   283.57592     -860.15079      0             -850.80375      4698.0527    
   3450000   286.37113     -860.15079      0             -850.71161      4721.2683    
   3460000   318.45622     -860.15079      0             -849.65405      4987.7513    
   3470000   303.41711     -860.15079      0             -850.14976      4862.8438    
   3480000   326.32389     -860.15079      0             -849.39472      5053.0964    
   3490000   299.05584     -860.15079      0             -850.29351      4826.6213    
   3500000   313.01375     -860.15079      0             -849.83344      4942.5488    
   3510000   276.8057      -860.15079      0             -851.0269       4641.8225    
   3520000   289.67346     -860.15079      0             -850.60276      4748.6959    
   3530000   300.2812      -860.15079      0             -850.25312      4836.7985    
   3540000   304.97553     -860.15079      0             -850.09839      4875.7873    
   3550000   295.15267     -860.15079      0             -850.42216      4794.2035    
   3560000   310.27162     -860.15079      0             -849.92382      4919.774     
   3570000   314.63287     -860.15079      0             -849.78007      4955.9965    
   3580000   317.68774     -860.15079      0             -849.67938      4981.3688    
   3590000   324.19749     -860.15079      0             -849.46481      5035.4355    
   3600000   309.65378     -860.15079      0             -849.94419      4914.6425    
   3610000   290.31309     -860.15079      0             -850.58168      4754.0083    
   3620000   285.09028     -860.15079      0             -850.75383      4710.6302    
   3630000   285.60664     -860.15079      0             -850.73681      4714.9188    
   3640000   310.83078     -860.15079      0             -849.90539      4924.4182    
   3650000   291.90214     -860.15079      0             -850.5293       4767.2061    
   3660000   302.90472     -860.15079      0             -850.16664      4858.5882    
   3670000   281.47635     -860.15079      0             -850.87295      4680.6147    
   3680000   323.33517     -860.15079      0             -849.49323      5028.2735    
   3690000   314.71571     -860.15079      0             -849.77734      4956.6845    
   3700000   280.40657     -860.15079      0             -850.90821      4671.7296    
   3710000   300.48708     -860.15079      0             -850.24633      4838.5084    
   3720000   274.158       -860.15079      0             -851.11418      4619.832     
   3730000   328.79404     -860.15079      0             -849.3133       5073.6122    
   3740000   301.73646     -860.15079      0             -850.20515      4848.8852    
   3750000   289.22439     -860.15079      0             -850.61757      4744.9661    
   3760000   300.21103     -860.15079      0             -850.25543      4836.2158    
   3770000   301.71594     -860.15079      0             -850.20583      4848.7148    
   3780000   271.3973      -860.15079      0             -851.20517      4596.903     
   3790000   293.48287     -860.15079      0             -850.4772       4780.3349    
   3800000   299.90927     -860.15079      0             -850.26538      4833.7095    
   3810000   297.334       -860.15079      0             -850.35026      4812.3206    
   3820000   290.09896     -860.15079      0             -850.58874      4752.2298    
   3830000   283.7607      -860.15079      0             -850.79766      4699.5874    
   3840000   273.88928     -860.15079      0             -851.12303      4617.6002    
   3850000   274.61702     -860.15079      0             -851.09905      4623.6444    
   3860000   276.87933     -860.15079      0             -851.02448      4642.4341    
   3870000   288.01276     -860.15079      0             -850.6575       4734.9029    
   3880000   287.80067     -860.15079      0             -850.66449      4733.1414    
   3890000   292.41711     -860.15079      0             -850.51233      4771.4832    
   3900000   322.47146     -860.15079      0             -849.5217       5021.0999    
   3910000   309.06708     -860.15079      0             -849.96353      4909.7698    
   3920000   281.14435     -860.15079      0             -850.8839       4677.8572    
   3930000   319.87847     -860.15079      0             -849.60717      4999.5639    
   3940000   283.07434     -860.15079      0             -850.82028      4693.8868    
   3950000   300.56488     -860.15079      0             -850.24377      4839.1547    
   3960000   311.45747     -860.15079      0             -849.88474      4929.6231    
   3970000   265.33593     -860.15079      0             -851.40496      4546.5602    
   3980000   309.95072     -860.15079      0             -849.9344       4917.1088    
   3990000   270.97583     -860.15079      0             -851.21906      4593.4025    
   4000000   312.80153     -860.15079      0             -849.84043      4940.7862    
   4010000   291.45091     -860.15079      0             -850.54418      4763.4585    
   4020000   285.95645     -860.15079      0             -850.72528      4717.8242    
   4030000   283.05941     -860.15079      0             -850.82077      4693.7628    
   4040000   305.59114     -860.15079      0             -850.0781       4880.9003    
   4050000   265.42782     -860.15079      0             -851.40193      4547.3234    
   4060000   302.22791     -860.15079      0             -850.18895      4852.967     
   4070000   288.85424     -860.15079      0             -850.62977      4741.8918    
   4080000   309.33591     -860.15079      0             -849.95466      4912.0025    
   4090000   309.0121      -860.15079      0             -849.96534      4909.3131    
   4100000   311.13009     -860.15079      0             -849.89553      4926.9041    
   4110000   300.14005     -860.15079      0             -850.25777      4835.6262    
   4120000   291.1177      -860.15079      0             -850.55516      4760.691     
   4130000   301.22824     -860.15079      0             -850.2219       4844.6642    
   4140000   314.65988     -860.15079      0             -849.77918      4956.2208    
   4150000   310.11073     -860.15079      0             -849.92913      4918.4378    
   4160000   316.48136     -860.15079      0             -849.71914      4971.3491    
   4170000   303.78764     -860.15079      0             -850.13754      4865.9213    
   4180000   264.03603     -860.15079      0             -851.44781      4535.7639    
   4190000   317.50508     -860.15079      0             -849.6854       4979.8517    
   4200000   318.5101      -860.15079      0             -849.65227      4988.1988    
   4210000   297.62486     -860.15079      0             -850.34068      4814.7363    
   4220000   282.36565     -860.15079      0             -850.84364      4688.0008    
   4230000   287.35726     -860.15079      0             -850.67911      4729.4586    
   4240000   303.49207     -860.15079      0             -850.14729      4863.4664    
   4250000   294.5774      -860.15079      0             -850.44112      4789.4255    
   4260000   292.31453     -860.15079      0             -850.51571      4770.6313    
   4270000   291.82001     -860.15079      0             -850.53201      4766.524     
   4280000   300.31386     -860.15079      0             -850.25204      4837.0698    
   4290000   309.30087     -860.15079      0             -849.95582      4911.7115    
   4300000   280.0445      -860.15079      0             -850.92015      4668.7224    
   4310000   293.52269     -860.15079      0             -850.47589      4780.6656    
   4320000   294.62876     -860.15079      0             -850.43943      4789.8521    
   4330000   302.34676     -860.15079      0             -850.18504      4853.954     
   4340000   332.94799     -860.15079      0             -849.17638      5108.1129    
   4350000   305.72658     -860.15079      0             -850.07363      4882.0252    
   4360000   297.605       -860.15079      0             -850.34133      4814.5713    
   4370000   301.3494      -860.15079      0             -850.21791      4845.6705    
   4380000   279.12        -860.15079      0             -850.95062      4661.0439    
   4390000   316.48053     -860.15079      0             -849.71917      4971.3423    
   4400000   269.25707     -860.15079      0             -851.27572      4579.1273    
   4410000   315.80619     -860.15079      0             -849.7414       4965.7415    
   4420000   320.07296     -860.15079      0             -849.60076      5001.1792    
   4430000   318.19342     -860.15079      0             -849.66271      4985.5686    
   4440000   292.69066     -860.15079      0             -850.50331      4773.7552    
   4450000   294.37122     -860.15079      0             -850.44792      4787.7131    
   4460000   285.03055     -860.15079      0             -850.7558       4710.1341    
   4470000   283.02441     -860.15079      0             -850.82193      4693.472     
   4480000   320.14114     -860.15079      0             -849.59851      5001.7455    
   4490000   288.62337     -860.15079      0             -850.63738      4739.9743    
   4500000   297.43125     -860.15079      0             -850.34706      4813.1283    
   4510000   328.34626     -860.15079      0             -849.32806      5069.8931    
   4520000   310.71591     -860.15079      0             -849.90918      4923.4641    
   4530000   292.77304     -860.15079      0             -850.5006       4774.4394    
   4540000   315.74454     -860.15079      0             -849.74343      4965.2295    
   4550000   309.61199     -860.15079      0             -849.94556      4914.2955    
   4560000   277.87611     -860.15079      0             -850.99162      4650.7128    
   4570000   329.52262     -860.15079      0             -849.28928      5079.6634    
   4580000   307.16266     -860.15079      0             -850.0263       4893.9526    
   4590000   274.96004     -860.15079      0             -851.08774      4626.4934    
   4600000   298.9063      -860.15079      0             -850.29844      4825.3793    
   4610000   301.14809     -860.15079      0             -850.22455      4843.9985    
   4620000   328.97319     -860.15079      0             -849.30739      5075.1001    
   4630000   305.21054     -860.15079      0             -850.09064      4877.7392    
   4640000   320.97583     -860.15079      0             -849.571        5008.678     
   4650000   287.62467     -860.15079      0             -850.6703       4731.6796    
   4660000   306.95446     -860.15079      0             -850.03316      4892.2234    
   4670000   282.50721     -860.15079      0             -850.83897      4689.1765    
   4680000   302.56629     -860.15079      0             -850.1778       4855.7774    
   4690000   313.43179     -860.15079      0             -849.81966      4946.0209    
   4700000   306.88465     -860.15079      0             -850.03546      4891.6436    
   4710000   307.64127     -860.15079      0             -850.01052      4897.9276    
   4720000   290.51386     -860.15079      0             -850.57506      4755.6758    
   4730000   332.37224     -860.15079      0             -849.19536      5103.331     
   4740000   292.1444      -860.15079      0             -850.52132      4769.2182    
   4750000   261.73477     -860.15079      0             -851.52366      4516.6508    
   4760000   286.24887     -860.15079      0             -850.71564      4720.2529    
   4770000   312.23415     -860.15079      0             -849.85913      4936.0739    
   4780000   314.07953     -860.15079      0             -849.79831      4951.4007    
   4790000   326.81992     -860.15079      0             -849.37837      5057.2161    
   4800000   323.50911     -860.15079      0             -849.4875       5029.7182    
   4810000   294.88813     -860.15079      0             -850.43088      4792.0063    
   4820000   301.10741     -860.15079      0             -850.22589      4843.6606    
   4830000   290.66117     -860.15079      0             -850.57021      4756.8993    
   4840000   323.64601     -860.15079      0             -849.48298      5030.8552    
   4850000   311.44907     -860.15079      0             -849.88501      4929.5534    
   4860000   287.32285     -860.15079      0             -850.68024      4729.1728    
   4870000   300.33324     -860.15079      0             -850.2514       4837.2308    
   4880000   302.16659     -860.15079      0             -850.19097      4852.4576    
   4890000   311.5018      -860.15079      0             -849.88327      4929.9913    
   4900000   296.98643     -860.15079      0             -850.36172      4809.4338    
   4910000   308.78033     -860.15079      0             -849.97298      4907.3881    
   4920000   308.15323     -860.15079      0             -849.99365      4902.1798    
   4930000   274.69499     -860.15079      0             -851.09648      4624.292     
   4940000   310.96511     -860.15079      0             -849.90096      4925.5339    
   4950000   281.6925      -860.15079      0             -850.86583      4682.4099    
   4960000   291.60868     -860.15079      0             -850.53898      4764.7689    
   4970000   321.98289     -860.15079      0             -849.5378       5017.0421    
   4980000   304.9058      -860.15079      0             -850.10069      4875.2082    
   4990000   308.70018     -860.15079      0             -849.97562      4906.7224    
   5000000   298.77578     -860.15079      0             -850.30274      4824.2953    
   5010000   302.69308     -860.15079      0             -850.17362      4856.8304    
   5020000   311.1069      -860.15079      0             -849.89629      4926.7115    
   5030000   320.34476     -860.15079      0             -849.5918       5003.4366    
   5040000   314.95719     -860.15079      0             -849.76938      4958.6901    
   5050000   296.32763     -860.15079      0             -850.38343      4803.9621    
   5060000   288.07137     -860.15079      0             -850.65557      4735.3897    
   5070000   296.29356     -860.15079      0             -850.38456      4803.6792    
   5080000   305.47255     -860.15079      0             -850.08201      4879.9154    
   5090000   302.40354     -860.15079      0             -850.18316      4854.4256    
   5100000   311.1024      -860.15079      0             -849.89644      4926.6741    
   5110000   317.56054     -860.15079      0             -849.68357      4980.3122    
   5120000   284.17776     -860.15079      0             -850.78391      4703.0512    
   5130000   306.62541     -860.15079      0             -850.04401      4889.4905    
   5140000   295.50607     -860.15079      0             -850.41051      4797.1386    
   5150000   288.15723     -860.15079      0             -850.65274      4736.1028    
   5160000   302.80489     -860.15079      0             -850.16994      4857.759     
   5170000   316.59888     -860.15079      0             -849.71527      4972.3252    
   5180000   286.32447     -860.15079      0             -850.71315      4720.8807    
   5190000   268.37145     -860.15079      0             -851.30491      4571.7718    
   5200000   301.41106     -860.15079      0             -850.21588      4846.1826    
   5210000   303.65916     -860.15079      0             -850.14178      4864.8542    
   5220000   281.85318     -860.15079      0             -850.86053      4683.7444    
   5230000   314.98629     -860.15079      0             -849.76842      4958.9318    
   5240000   308.83318     -860.15079      0             -849.97123      4907.8271    
   5250000   308.3606      -860.15079      0             -849.98681      4903.9021    
   5260000   298.94326     -860.15079      0             -850.29722      4825.6862    
   5270000   293.00265     -860.15079      0             -850.49303      4776.3465    
   5280000   342.90211     -860.15079      0             -848.84828      5190.7869    
   5290000   283.18834     -860.15079      0             -850.81652      4694.8336    
   5300000   288.48742     -860.15079      0             -850.64186      4738.8452    
   5310000   295.61851     -860.15079      0             -850.40681      4798.0725    
   5320000   301.79692     -860.15079      0             -850.20316      4849.3874    
   5330000   281.16762     -860.15079      0             -850.88313      4678.0505    
   5340000   286.45335     -860.15079      0             -850.7089       4721.9512    
   5350000   268.65261     -860.15079      0             -851.29564      4574.107     
   5360000   289.7974      -860.15079      0             -850.59868      4749.7252    
   5370000   293.8907      -860.15079      0             -850.46376      4783.7222    
   5380000   302.85261     -860.15079      0             -850.16836      4858.1554    
   5390000   301.53995     -860.15079      0             -850.21163      4847.2531    
   5400000   270.46011     -860.15079      0             -851.23606      4589.1192    
   5410000   300.74517     -860.15079      0             -850.23783      4840.652     
   5420000   286.70262     -860.15079      0             -850.70069      4724.0215    
   5430000   293.46411     -860.15079      0             -850.47782      4780.1791    
   5440000   301.44832     -860.15079      0             -850.21465      4846.492     
   5450000   281.81308     -860.15079      0             -850.86185      4683.4114    
   5460000   272.78456     -860.15079      0             -851.15945      4608.4249    
   5470000   327.07497     -860.15079      0             -849.36996      5059.3344    
   5480000   295.68089     -860.15079      0             -850.40475      4798.5906    
   5490000   304.12628     -860.15079      0             -850.12638      4868.7338    
   5500000   269.05045     -860.15079      0             -851.28253      4577.4113    
   5510000   326.59319     -860.15079      0             -849.38584      5055.3331    
   5520000   284.87549     -860.15079      0             -850.76091      4708.8463    
   5530000   315.17816     -860.15079      0             -849.7621       4960.5254    
   5540000   278.04458     -860.15079      0             -850.98607      4652.112     
   5550000   274.53782     -860.15079      0             -851.10166      4622.9866    
   5560000   290.10756     -860.15079      0             -850.58846      4752.3012    
   5570000   285.45456     -860.15079      0             -850.74183      4713.6557    
   5580000   290.1881      -860.15079      0             -850.5858       4752.9702    
   5590000   305.12918     -860.15079      0             -850.09332      4877.0635    
   5600000   286.30468     -860.15079      0             -850.7138       4720.7164    
   5610000   303.34899     -860.15079      0             -850.152        4862.2781    
   5620000   307.09418     -860.15079      0             -850.02855      4893.3838    
   5630000   287.32195     -860.15079      0             -850.68027      4729.1653    
   5640000   298.39928     -860.15079      0             -850.31515      4821.1682    
   5650000   290.06094     -860.15079      0             -850.58999      4751.9141    
   5660000   288.64728     -860.15079      0             -850.63659      4740.1729    
   5670000   304.49381     -860.15079      0             -850.11427      4871.7864    
   5680000   271.54892     -860.15079      0             -851.20017      4598.1623    
   5690000   287.5873      -860.15079      0             -850.67153      4731.3692    
   5700000   309.54046     -860.15079      0             -849.94792      4913.7014    
   5710000   281.58664     -860.15079      0             -850.86932      4681.5307    
   5720000   312.44458     -860.15079      0             -849.8522       4937.8216    
   5730000   300.91126     -860.15079      0             -850.23235      4842.0315    
   5740000   281.56987     -860.15079      0             -850.86987      4681.3914    
   5750000   294.73292     -860.15079      0             -850.436        4790.7172    
   5760000   300.98338     -860.15079      0             -850.22997      4842.6305    
   5770000   327.02771     -860.15079      0             -849.37152      5058.9419    
   5780000   306.51085     -860.15079      0             -850.04778      4888.539     
   5790000   328.45779     -860.15079      0             -849.32438      5070.8195    
   5800000   286.65431     -860.15079      0             -850.70228      4723.6202    
   5810000   327.23558     -860.15079      0             -849.36467      5060.6684    
   5820000   293.54046     -860.15079      0             -850.4753       4780.8132    
   5830000   296.58247     -860.15079      0             -850.37503      4806.0787    
   5840000   296.15449     -860.15079      0             -850.38914      4802.5241    
   5850000   304.10249     -860.15079      0             -850.12717      4868.5363    
   5860000   291.28579     -860.15079      0             -850.54962      4762.087     
   5870000   302.98382     -860.15079      0             -850.16404      4859.2451    
   5880000   325.5114      -860.15079      0             -849.4215       5046.3482    
   5890000   325.05704     -860.15079      0             -849.43647      5042.5745    
   5900000   296.46285     -860.15079      0             -850.37898      4805.0852    
   5910000   290.12175     -860.15079      0             -850.58799      4752.4191    
   5920000   271.93982     -860.15079      0             -851.18729      4601.4089    
   5930000   282.44363     -860.15079      0             -850.84107      4688.6484    
   5940000   295.12305     -860.15079      0             -850.42314      4793.9574    
   5950000   290.91806     -860.15079      0             -850.56174      4759.0329    
   5960000   285.73135     -860.15079      0             -850.7327       4715.9546    
   5970000   309.16813     -860.15079      0             -849.96019      4910.609     
   5980000   295.77669     -860.15079      0             -850.40159      4799.3863    
   5990000   317.77951     -860.15079      0             -849.67635      4982.1309    
   6000000   283.63708     -860.15079      0             -850.80173      4698.5606    
   6010000   285.4492      -860.15079      0             -850.742        4713.6112    
   6020000   310.57405     -860.15079      0             -849.91385      4922.2859    
   6030000   301.99753     -860.15079      0             -850.19655      4851.0536    
   6040000   308.51546     -860.15079      0             -849.98171      4905.1883    
   6050000   310.9272      -860.15079      0             -849.90221      4925.219     
   6060000   312.9097      -860.15079      0             -849.83687      4941.6847    
   6070000   292.70812     -860.15079      0             -850.50274      4773.9002    
   6080000   340.3653      -860.15079      0             -848.93189      5169.7174    
   6090000   285.37144     -860.15079      0             -850.74457      4712.9654    
   6100000   288.80896     -860.15079      0             -850.63126      4741.5157    
   6110000   284.53958     -860.15079      0             -850.77198      4706.0563    
   6120000   294.69347     -860.15079      0             -850.4373       4790.3896    
   6130000   321.49103     -860.15079      0             -849.55402      5012.957     
   6140000   294.57836     -860.15079      0             -850.44109      4789.4335    
   6150000   284.77592     -860.15079      0             -850.76419      4708.0193    
   6160000   304.4695      -860.15079      0             -850.11507      4871.5845    
   6170000   292.02967     -860.15079      0             -850.5251       4768.2654    
   6180000   289.05121     -860.15079      0             -850.62328      4743.5278    
   6190000   314.58726     -860.15079      0             -849.78157      4955.6176    
   6200000   315.43235     -860.15079      0             -849.75372      4962.6365    
   6210000   318.45904     -860.15079      0             -849.65395      4987.7748    
   6220000   322.30688     -860.15079      0             -849.52712      5019.733     
   6230000   269.26747     -860.15079      0             -851.27537      4579.2137    
   6240000   294.66985     -860.15079      0             -850.43808      4790.1934    
   6250000   310.59522     -860.15079      0             -849.91316      4922.4617    
   6260000   288.68988     -860.15079      0             -850.63519      4740.5267    
   6270000   294.18142     -860.15079      0             -850.45418      4786.1367    
   6280000   283.75413     -860.15079      0             -850.79787      4699.5328    
   6290000   298.52315     -860.15079      0             -850.31107      4822.197     
   6300000   296.10831     -860.15079      0             -850.39066      4802.1405    
   6310000   308.12911     -860.15079      0             -849.99444      4901.9794    
   6320000   287.10701     -860.15079      0             -850.68736      4727.3801    
   6330000   306.47716     -860.15079      0             -850.04889      4888.2591    
   6340000   314.86282     -860.15079      0             -849.77249      4957.9063    
   6350000   310.70312     -860.15079      0             -849.9096       4923.3579    
   6360000   324.57169     -860.15079      0             -849.45247      5038.5434    
   6370000   292.31802     -860.15079      0             -850.5156       4770.6602    
   6380000   311.47084     -860.15079      0             -849.88429      4929.7342    
   6390000   297.10664     -860.15079      0             -850.35776      4810.4322    
   6400000   325.61774     -860.15079      0             -849.41799      5047.2315    
   6410000   307.16516     -860.15079      0             -850.02622      4893.9733    
   6420000   297.61451     -860.15079      0             -850.34102      4814.6503    
   6430000   280.9239      -860.15079      0             -850.89116      4676.0263    
   6440000   288.50334     -860.15079      0             -850.64133      4738.9774    
   6450000   300.02927     -860.15079      0             -850.26142      4834.7061    
   6460000   301.10481     -860.15079      0             -850.22597      4843.639     
   6470000   308.65273     -860.15079      0             -849.97718      4906.3284    
   6480000   281.50094     -860.15079      0             -850.87214      4680.8189    
   6490000   312.36335     -860.15079      0             -849.85488      4937.147     
   6500000   295.03397     -860.15079      0             -850.42608      4793.2176    
   6510000   297.75642     -860.15079      0             -850.33634      4815.829     
   6520000   287.63581     -860.15079      0             -850.66993      4731.7721    
   6530000   276.60542     -860.15079      0             -851.03351      4640.1591    
   6540000   309.14651     -860.15079      0             -849.96091      4910.4295    
   6550000   301.19942     -860.15079      0             -850.22285      4844.4248    
   6560000   304.92896     -860.15079      0             -850.09992      4875.4005    
   6570000   286.95238     -860.15079      0             -850.69246      4726.0959    
   6580000   285.41157     -860.15079      0             -850.74324      4713.2986    
   6590000   297.85571     -860.15079      0             -850.33307      4816.6536    
   6600000   303.86424     -860.15079      0             -850.13502      4866.5575    
   6610000   308.90326     -860.15079      0             -849.96893      4908.4091    
   6620000   286.09734     -860.15079      0             -850.72064      4718.9943    
   6630000   304.90089     -860.15079      0             -850.10085      4875.1674    
   6640000   272.81063     -860.15079      0             -851.15859      4608.6415    
   6650000   310.56566     -860.15079      0             -849.91413      4922.2162    
   6660000   271.48671     -860.15079      0             -851.20222      4597.6456    
   6670000   290.51896     -860.15079      0             -850.5749       4755.7181    
   6680000   270.31986     -860.15079      0             -851.24069      4587.9544    
   6690000   272.4516      -860.15079      0             -851.17042      4605.6595    
   6700000   276.7085      -860.15079      0             -851.03011      4641.0153    
   6710000   315.21405     -860.15079      0             -849.76091      4960.8235    
   6720000   299.28385     -860.15079      0             -850.28599      4828.5151    
   6730000   271.26042     -860.15079      0             -851.20968      4595.7662    
   6740000   272.76947     -860.15079      0             -851.15994      4608.2996    
   6750000   300.65628     -860.15079      0             -850.24076      4839.9137    
   6760000   290.75326     -860.15079      0             -850.56717      4757.6641    
   6770000   307.37219     -860.15079      0             -850.01939      4895.6928    
   6780000   292.23139     -860.15079      0             -850.51845      4769.9407    
   6790000   307.76172     -860.15079      0             -850.00655      4898.9281    
   6800000   307.22002     -860.15079      0             -850.02441      4894.429     
   6810000   310.59911     -860.15079      0             -849.91303      4922.494     
   6820000   287.53355     -860.15079      0             -850.6733       4730.9228    
   6830000   299.19773     -860.15079      0             -850.28883      4827.7998    
   6840000   299.55145     -860.15079      0             -850.27717      4830.7376    
   6850000   313.2396      -860.15079      0             -849.82599      4944.4247    
   6860000   268.77715     -860.15079      0             -851.29154      4575.1413    
   6870000   273.69103     -860.15079      0             -851.12957      4615.9536    
   6880000   294.01405     -860.15079      0             -850.45969      4784.7466    
   6890000   301.83093     -860.15079      0             -850.20204      4849.6698    
   6900000   299.28222     -860.15079      0             -850.28605      4828.5015    
   6910000   284.66962     -860.15079      0             -850.7677       4707.1364    
   6920000   329.91103     -860.15079      0             -849.27648      5082.8894    
   6930000   307.95688     -860.15079      0             -850.00012      4900.549     
   6940000   307.15625     -860.15079      0             -850.02651      4893.8994    
   6950000   310.55102     -860.15079      0             -849.91461      4922.0946    
   6960000   307.52664     -860.15079      0             -850.0143       4896.9756    
   6970000   323.28172     -860.15079      0             -849.49499      5027.8296    
   6980000   274.29976     -860.15079      0             -851.1095       4621.0094    
   6990000   297.13046     -860.15079      0             -850.35697      4810.63      
   7000000   301.01228     -860.15079      0             -850.22902      4842.8705    
   7010000   291.08503     -860.15079      0             -850.55624      4760.4197    
   7020000   298.32466     -860.15079      0             -850.31761      4820.5485    
   7030000   309.79784     -860.15079      0             -849.93944      4915.8391    
   7040000   298.80879     -860.15079      0             -850.30165      4824.5694    
   7050000   292.07744     -860.15079      0             -850.52353      4768.6621    
   7060000   279.9031      -860.15079      0             -850.92481      4667.548     
   7070000   285.78176     -860.15079      0             -850.73104      4716.3733    
   7080000   303.101       -860.15079      0             -850.16018      4860.2184    
   7090000   300.3502      -860.15079      0             -850.25085      4837.3716    
   7100000   275.44932     -860.15079      0             -851.07161      4630.5571    
   7110000   297.48781     -860.15079      0             -850.34519      4813.598     
   7120000   319.58645     -860.15079      0             -849.61679      4997.1385    
   7130000   305.98096     -860.15079      0             -850.06525      4884.1379    
   7140000   279.77745     -860.15079      0             -850.92895      4666.5044    
   7150000   255.89692     -860.15079      0             -851.71608      4468.1645    
   7160000   323.15488     -860.15079      0             -849.49917      5026.7761    
   7170000   345.50508     -860.15079      0             -848.76248      5212.4059    
   7180000   292.75898     -860.15079      0             -850.50106      4774.3227    
   7190000   312.87151     -860.15079      0             -849.83813      4941.3675    
   7200000   313.04545     -860.15079      0             -849.83239      4942.8121    
   7210000   292.36121     -860.15079      0             -850.51417      4771.019     
   7220000   320.26335     -860.15079      0             -849.59448      5002.7605    
   7230000   307.44803     -860.15079      0             -850.01689      4896.3227    
   7240000   307.13302     -860.15079      0             -850.02727      4893.7064    
   7250000   292.0079      -860.15079      0             -850.52582      4768.0846    
   7260000   325.7984      -860.15079      0             -849.41204      5048.7319    
   7270000   310.85896     -860.15079      0             -849.90446      4924.6523    
   7280000   302.61107     -860.15079      0             -850.17632      4856.1493    
   7290000   284.66025     -860.15079      0             -850.76801      4707.0586    
   7300000   311.63172     -860.15079      0             -849.87899      4931.0704    
   7310000   293.22214     -860.15079      0             -850.4858       4778.1695    
   7320000   322.56531     -860.15079      0             -849.51861      5021.8794    
   7330000   304.01784     -860.15079      0             -850.12996      4867.8332    
   7340000   299.29804     -860.15079      0             -850.28553      4828.6329    
   7350000   300.33148     -860.15079      0             -850.25146      4837.2161    
   7360000   304.52168     -860.15079      0             -850.11335      4872.0179    
   7370000   273.86358     -860.15079      0             -851.12388      4617.3868    
   7380000   287.75263     -860.15079      0             -850.66608      4732.7423    
   7390000   306.85726     -860.15079      0             -850.03636      4891.416     
   7400000   320.90792     -860.15079      0             -849.57324      5008.114     
   7410000   289.49541     -860.15079      0             -850.60863      4747.217     
   7420000   308.28955     -860.15079      0             -849.98915      4903.3119    
   7430000   293.9848      -860.15079      0             -850.46066      4784.5037    
   7440000   285.25949     -860.15079      0             -850.74826      4712.0356    
   7450000   277.04116     -860.15079      0             -851.01914      4643.7782    
   7460000   270.31628     -860.15079      0             -851.2408       4587.9246    
   7470000   288.67722     -860.15079      0             -850.6356       4740.4216    
   7480000   305.79168     -860.15079      0             -850.07149      4882.5659    
   7490000   308.23218     -860.15079      0             -849.99104      4902.8355    
   7500000   305.79347     -860.15079      0             -850.07143      4882.5807    
   7510000   316.83108     -860.15079      0             -849.70761      4974.2537    
   7520000   264.35        -860.15079      0             -851.43746      4538.3716    
   7530000   306.65394     -860.15079      0             -850.04307      4889.7274    
   7540000   282.65953     -860.15079      0             -850.83395      4690.4415    
   7550000   312.7605      -860.15079      0             -849.84179      4940.4455    
   7560000   304.46441     -860.15079      0             -850.11524      4871.5422    
   7570000   307.65226     -860.15079      0             -850.01016      4898.0189    
   7580000   286.2216      -860.15079      0             -850.71654      4720.0264    
   7590000   290.88793     -860.15079      0             -850.56273      4758.7826    
   7600000   279.15447     -860.15079      0             -850.94948      4661.3303    
   7610000   310.05694     -860.15079      0             -849.9309       4917.991     
   7620000   312.73916     -860.15079      0             -849.84249      4940.2682    
   7630000   284.60917     -860.15079      0             -850.76969      4706.6343    
   7640000   286.23975     -860.15079      0             -850.71594      4720.1771    
   7650000   295.84051     -860.15079      0             -850.39949      4799.9164    
   7660000   297.10265     -860.15079      0             -850.35789      4810.3991    
   7670000   292.18046     -860.15079      0             -850.52013      4769.5178    
   7680000   303.93054     -860.15079      0             -850.13283      4867.1082    
   7690000   317.48691     -860.15079      0             -849.686        4979.7007    
   7700000   287.50339     -860.15079      0             -850.67429      4730.6723    
   7710000   289.95605     -860.15079      0             -850.59345      4751.0429    
   7720000   287.48753     -860.15079      0             -850.67482      4730.5406    
   7730000   291.47077     -860.15079      0             -850.54352      4763.6234    
   7740000   288.18035     -860.15079      0             -850.65198      4736.2948    
   7750000   292.2396      -860.15079      0             -850.51818      4770.0089    
   7760000   293.24247     -860.15079      0             -850.48513      4778.3383    
   7770000   300.65817     -860.15079      0             -850.24069      4839.9295    
   7780000   296.44743     -860.15079      0             -850.37949      4804.9571    
   7790000   305.56574     -860.15079      0             -850.07893      4880.6893    
   7800000   314.15421     -860.15079      0             -849.79585      4952.021     
   7810000   290.58485     -860.15079      0             -850.57272      4756.2654    
   7820000   289.31779     -860.15079      0             -850.61449      4745.7418    
   7830000   303.51722     -860.15079      0             -850.14646      4863.6753    
   7840000   309.78647     -860.15079      0             -849.93981      4915.7446    
   7850000   295.60598     -860.15079      0             -850.40722      4797.9684    
   7860000   306.84342     -860.15079      0             -850.03682      4891.3011    
   7870000   276.54692     -860.15079      0             -851.03543      4639.6733    
   7880000   290.00173     -860.15079      0             -850.59194      4751.4223    
   7890000   267.96284     -860.15079      0             -851.31838      4568.3781    
   7900000   292.79779     -860.15079      0             -850.49978      4774.645     
   7910000   305.16145     -860.15079      0             -850.09226      4877.3315    
   7920000   301.96973     -860.15079      0             -850.19746      4850.8226    
   7930000   308.51833     -860.15079      0             -849.98161      4905.2121    
   7940000   274.81593     -860.15079      0             -851.09249      4625.2965    
   7950000   282.15831     -860.15079      0             -850.85047      4686.2787    
   7960000   289.01221     -860.15079      0             -850.62456      4743.2038    
   7970000   320.38596     -860.15079      0             -849.59044      5003.7788    
   7980000   305.59727     -860.15079      0             -850.0779       4880.9512    
   7990000   313.76333     -860.15079      0             -849.80873      4948.7745    
   8000000   296.52812     -860.15079      0             -850.37683      4805.6272    
   8010000   301.48341     -860.15079      0             -850.21349      4846.7835    
   8020000   310.20561     -860.15079      0             -849.926        4919.2258    
   8030000   341.92821     -860.15079      0             -848.88038      5182.6982    
   8040000   300.26096     -860.15079      0             -850.25379      4836.6304    
   8050000   286.21747     -860.15079      0             -850.71668      4719.9921    
   8060000   283.40619     -860.15079      0             -850.80934      4696.643     
   8070000   319.62039     -860.15079      0             -849.61567      4997.4204    
   8080000   306.14365     -860.15079      0             -850.05989      4885.4891    
   8090000   310.20728     -860.15079      0             -849.92594      4919.2397    
   8100000   295.45638     -860.15079      0             -850.41215      4796.726     
   8110000   294.22165     -860.15079      0             -850.45285      4786.4709    
   8120000   296.39684     -860.15079      0             -850.38115      4804.537     
   8130000   295.17374     -860.15079      0             -850.42147      4794.3785    
   8140000   303.15441     -860.15079      0             -850.15841      4860.662     
   8150000   319.38681     -860.15079      0             -849.62337      4995.4804    
   8160000   338.50282     -860.15079      0             -848.99328      5154.2486    
   8170000   295.70807     -860.15079      0             -850.40386      4798.8164    
   8180000   306.34748     -860.15079      0             -850.05317      4887.182     
   8190000   285.88353     -860.15079      0             -850.72769      4717.2185    
   8200000   300.76062     -860.15079      0             -850.23732      4840.7803    
   8210000   321.00216     -860.15079      0             -849.57013      5008.8967    
   8220000   297.12064     -860.15079      0             -850.3573       4810.5484    
   8230000   336.10399     -860.15079      0             -849.07235      5134.3251    
   8240000   311.78097     -860.15079      0             -849.87407      4932.31      
   8250000   325.20593     -860.15079      0             -849.43157      5043.8111    
   8260000   289.69288     -860.15079      0             -850.60212      4748.8571    
   8270000   315.7237      -860.15079      0             -849.74411      4965.0564    
   8280000   290.33125     -860.15079      0             -850.58108      4754.1591    
   8290000   317.36628     -860.15079      0             -849.68997      4978.6989    
   8300000   298.25283     -860.15079      0             -850.31998      4819.9519    
   8310000   298.1598      -860.15079      0             -850.32304      4819.1792    
   8320000   302.28602     -860.15079      0             -850.18704      4853.4496    
   8330000   280.76948     -860.15079      0             -850.89625      4674.7437    
   8340000   302.656       -860.15079      0             -850.17484      4856.5225    
   8350000   305.02667     -860.15079      0             -850.0967       4876.212     
   8360000   284.26814     -860.15079      0             -850.78093      4703.8019    
   8370000   320.33404     -860.15079      0             -849.59215      5003.3476    
   8380000   306.45464     -860.15079      0             -850.04963      4888.0721    
   8390000   299.67984     -860.15079      0             -850.27294      4831.804     
   8400000   283.17336     -860.15079      0             -850.81702      4694.7092    
   8410000   312.59457     -860.15079      0             -849.84725      4939.0674    
   8420000   301.6631      -860.15079      0             -850.20757      4848.2759    
   8430000   301.5536      -860.15079      0             -850.21118      4847.3665    
   8440000   314.70726     -860.15079      0             -849.77762      4956.6143    
   8450000   283.17649     -860.15079      0             -850.81691      4694.7352    
   8460000   271.04844     -860.15079      0             -851.21667      4594.0055    
   8470000   287.3752      -860.15079      0             -850.67852      4729.6076    
   8480000   284.82207     -860.15079      0             -850.76267      4708.4026    
   8490000   310.06283     -860.15079      0             -849.9307       4918.04      
   8500000   296.31355     -860.15079      0             -850.3839       4803.8452    
   8510000   308.75983     -860.15079      0             -849.97365      4907.2179    
   8520000   302.79747     -860.15079      0             -850.17018      4857.6974    
   8530000   299.67855     -860.15079      0             -850.27298      4831.7932    
   8540000   302.54941     -860.15079      0             -850.17836      4855.6372    
   8550000   310.68262     -860.15079      0             -849.91028      4923.1876    
   8560000   309.12798     -860.15079      0             -849.96152      4910.2755    
   8570000   298.53607     -860.15079      0             -850.31064      4822.3043    
   8580000   276.95984     -860.15079      0             -851.02182      4643.1027    
   8590000   315.62283     -860.15079      0             -849.74744      4964.2186    
   8600000   304.56319     -860.15079      0             -850.11198      4872.3627    
   8610000   300.83727     -860.15079      0             -850.23479      4841.417     
   8620000   294.30693     -860.15079      0             -850.45004      4787.1792    
   8630000   282.79033     -860.15079      0             -850.82964      4691.5279    
   8640000   284.3101      -860.15079      0             -850.77955      4704.1504    
   8650000   303.75137     -860.15079      0             -850.13874      4865.6201    
   8660000   315.97364     -860.15079      0             -849.73588      4967.1323    
   8670000   274.13466     -860.15079      0             -851.11494      4619.6382    
   8680000   287.837       -860.15079      0             -850.6633       4733.4431    
   8690000   291.30935     -860.15079      0             -850.54884      4762.2828    
   8700000   307.95475     -860.15079      0             -850.00019      4900.5313    
   8710000   265.63315     -860.15079      0             -851.39517      4549.0288    
   8720000   303.56501     -860.15079      0             -850.14488      4864.0722    
   8730000   302.60085     -860.15079      0             -850.17666      4856.0644    
   8740000   309.31756     -860.15079      0             -849.95527      4911.8501    
   8750000   300.94005     -860.15079      0             -850.2314       4842.2706    
   8760000   324.48241     -860.15079      0             -849.45542      5037.802     
   8770000   306.39788     -860.15079      0             -850.05151      4887.6007    
   8780000   300.7707      -860.15079      0             -850.23699      4840.8641    
   8790000   280.4523      -860.15079      0             -850.90671      4672.1094    
   8800000   316.24419     -860.15079      0             -849.72696      4969.3793    
   8810000   290.60536     -860.15079      0             -850.57205      4756.4357    
   8820000   283.50582     -860.15079      0             -850.80606      4697.4704    
   8830000   271.38834     -860.15079      0             -851.20547      4596.8285    
   8840000   329.8954      -860.15079      0             -849.277        5082.7596    
   8850000   338.15549     -860.15079      0             -849.00473      5151.3638    
   8860000   309.78497     -860.15079      0             -849.93986      4915.7322    
   8870000   309.53001     -860.15079      0             -849.94827      4913.6146    
   8880000   306.91701     -860.15079      0             -850.03439      4891.9123    
   8890000   302.05205     -860.15079      0             -850.19475      4851.5063    
   8900000   304.39273     -860.15079      0             -850.1176       4870.9469    
   8910000   299.77616     -860.15079      0             -850.26977      4832.6039    
   8920000   299.22807     -860.15079      0             -850.28783      4828.0518    
   8930000   307.702       -860.15079      0             -850.00852      4898.432     
   8940000   304.8827      -860.15079      0             -850.10145      4875.0163    
   8950000   288.30064     -860.15079      0             -850.64802      4737.2938    
   8960000   305.25442     -860.15079      0             -850.0892       4878.1037    
   8970000   310.57996     -860.15079      0             -849.91366      4922.3349    
[...]
  97870000   278.34411     -859.92784      0             -850.75325      4754.5022    
  97880000   331.87335     -859.84754      0             -848.90855      5217.8638    
  97890000   318.75438     -859.8549       0             -849.34833      5116.4031    
  97900000   303.15109     -859.88979      0             -849.89753      4982.2319    
  97910000   289.90392     -859.85713      0             -850.30151      4869.4313    
  97920000   312.16905     -859.86928      0             -849.57977      5065.5548    
  97930000   286.96687     -859.87894      0             -850.42013      4849.9824    
  97940000   293.35373     -859.84006      0             -850.17073      4905.2302    
  97950000   316.13006     -859.92628      0             -849.50621      5067.9772    
  97960000   287.87003     -859.90899      0             -850.42041      4831.6903    
  97970000   282.73446     -859.86967      0             -850.55037      4799.7961    
  97980000   276.2177      -859.88818      0             -850.78368      4761.8896    
  97990000   313.52975     -859.8738       0             -849.53944      5079.291     
  98000000   286.1573      -859.86095      0             -850.42882      4837.3081    
  98010000   304.20812     -859.92829      0             -849.90118      4966.0299    
  98020000   311.56569     -859.90813      0             -849.63851      5039.9647    
  98030000   305.70155     -859.83864      0             -849.76231      5008.5783    
  98040000   265.38364     -859.91531      0             -851.16791      4656.0688    
  98050000   318.38179     -859.87342      0             -849.37913      5100.567     
  98060000   307.98478     -859.85004      0             -849.69845      5019.0156    
  98070000   280.57807     -859.86134      0             -850.61312      4806.6528    
  98080000   285.42341     -859.84904      0             -850.44111      4846.2873    
  98090000   306.39557     -859.86341      0             -849.7642       5000.6438    
  98100000   301.50806     -859.92495      0             -849.98684      4942.9814    
  98110000   288.1572      -859.87036      0             -850.37231      4860.9541    
  98120000   293.80808     -859.80672      0             -850.12242      4922.2553    
  98130000   286.12575     -859.89824      0             -850.46715      4833.1487    
  98140000   292.51737     -859.86835      0             -850.22658      4888.0337    
  98150000   302.92088     -859.85619      0             -849.87152      4983.304     
  98160000   330.79869     -859.8909       0             -848.98734      5210.2883    
  98170000   317.54046     -859.84185      0             -849.37529      5104.4361    
  98180000   319.71071     -859.87968      0             -849.34158      5111.5667    
  98190000   273.45573     -859.91308      0             -850.89961      4720.5447    
  98200000   293.80165     -859.86051      0             -850.17641      4906.2892    
  98210000   306.86527     -859.87652      0             -849.76183      5006.4168    
  98220000   313.80699     -859.88253      0             -849.53903      5070.7053    
  98230000   304.04773     -859.82041      0             -849.79859      5003.2016    
  98240000   305.11762     -859.89201      0             -849.83493      4996.2438    
  98250000   287.42411     -859.87486      0             -850.40098      4838.2718    
  98260000   303.11198     -859.88889      0             -849.89791      4967.4997    
  98270000   302.8151      -859.83875      0             -849.85756      4997.1601    
  98280000   279.52075     -859.83001      0             -850.61663      4799.0624    
  98290000   313.91227     -859.9149       0             -849.56793      5059.1763    
  98300000   291.86782     -859.82638      0             -850.20603      4885.5781    
  98310000   311.21733     -859.8822       0             -849.62406      5060.4459    
  98320000   314.34238     -859.81343      0             -849.45228      5099.5502    
  98330000   297.53507     -859.92219      0             -850.11503      4910.5417    
  98340000   290.95304     -859.91554      0             -850.32533      4854.347     
  98350000   283.34773     -859.85475      0             -850.51523      4817.6967    
  98360000   331.53365     -859.82056      0             -848.89276      5256.2292    
  98370000   310.59993     -859.81286      0             -849.57507      5059.4342    
  98380000   322.59666     -859.92643      0             -849.29321      5124.9939    
  98390000   300.13031     -859.84775      0             -849.95505      4961.0355    
  98400000   317.05819     -859.85292      0             -849.40226      5106.9909    
  98410000   278.39762     -859.90852      0             -850.73216      4759.2511    
  98420000   312.0008      -859.80535      0             -849.52138      5060.0965    
  98430000   296.38782     -859.85354      0             -850.08421      4948.5987    
  98440000   313.73648     -859.86752      0             -849.52635      5070.9109    
  98450000   291.0227      -859.86516      0             -850.27266      4868.3777    
  98460000   299.83288     -859.81871      0             -849.93582      4989.175     
  98470000   281.08625     -859.85424      0             -850.58927      4813.5061    
  98480000   326.29513     -859.85508      0             -849.09995      5158.1551    
  98490000   309.4525      -859.89112      0             -849.69115      5026.8768    
  98500000   301.89794     -859.8202       0             -849.86924      5001.6282    
  98510000   288.72195     -859.80619      0             -850.28952      4879.4681    
  98520000   295.75296     -859.9239       0             -850.17548      4896.3634    
  98530000   316.46988     -859.84591      0             -849.41464      5088.5845    
  98540000   287.08951     -859.83178      0             -850.36893      4866.612     
  98550000   291.39489     -859.93118      0             -850.32642      4869.1229    
  98560000   285.20211     -859.81485      0             -850.41421      4817.2971    
  98570000   304.99103     -859.88053      0             -849.82761      4991.6091    
  98580000   293.48569     -859.84339      0             -850.16971      4917.4385    
  98590000   288.19351     -859.81183      0             -850.31258      4864.9101    
  98600000   285.23198     -859.92532      0             -850.5237       4810.0692    
  98610000   294.7269      -859.86217      0             -850.14758      4913.3675    
  98620000   299.54345     -859.80391      0             -849.93056      4974.2529    
  98630000   320.14678     -859.8844       0             -849.33193      5122.0989    
  98640000   315.48423     -859.80636      0             -849.40758      5084.6935    
  98650000   295.40091     -859.89034      0             -850.15353      4908.6102    
  98660000   300.61245     -859.83282      0             -849.92423      4969.6303    
  98670000   293.70696     -859.85702      0             -850.17605      4898.3849    
  98680000   292.1284      -859.89209      0             -850.26315      4878.0904    
  98690000   309.00655     -859.817        0             -849.63173      5033.1472    
  98700000   294.9679      -859.88617      0             -850.16364      4915.1027    
  98710000   266.00668     -859.87151      0             -851.10357      4661.4776    
  98720000   336.66633     -859.87299      0             -848.77601      5258.5277    
  98730000   296.25411     -859.83148      0             -850.06655      4929.7064    
  98740000   317.38494     -859.83497      0             -849.37354      5117.9012    
  98750000   299.37004     -859.8397       0             -849.97206      4955.8471    
  98760000   289.91737     -859.88298      0             -850.32691      4858.4021    
  98770000   329.47451     -859.81847      0             -848.95855      5221.7648    
  98780000   297.6323      -859.81543      0             -850.00507      4961.0766    
  98790000   315.43431     -859.84659      0             -849.44945      5088.8495    
  98800000   295.28489     -859.88804      0             -850.15506      4902.5711    
  98810000   315.11748     -859.84319      0             -849.4565       5093.8363    
  98820000   291.21296     -859.82651      0             -850.22774      4902.2431    
  98830000   305.34263     -859.83592      0             -849.77142      5014.022     
  98840000   294.24528     -859.85378      0             -850.15506      4907.8525    
  98850000   309.35522     -859.86248      0             -849.66572      5036.5644    
  98860000   288.56849     -859.82294      0             -850.31134      4868.7852    
  98870000   297.80571     -859.88637      0             -850.07029      4931.9286    
  98880000   295.74474     -859.84136      0             -850.09322      4918.846     
  98890000   288.63672     -859.86141      0             -850.34756      4870.035     
  98900000   291.90385     -859.845        0             -850.22346      4903.1249    
  98910000   277.21088     -859.8592       0             -850.72196      4755.7706    
  98920000   280.9251      -859.90465      0             -850.64498      4786.4201    
  98930000   298.5182      -859.785        0             -849.94545      4969.1651    
  98940000   296.58379     -859.81168      0             -850.03588      4955.594     
  98950000   288.56564     -859.88333      0             -850.37182      4853.5586    
  98960000   302.99458     -859.82235      0             -849.83524      4980.0621    
  98970000   293.45627     -859.86654      0             -850.19383      4909.9513    
  98980000   290.66346     -859.83363      0             -850.25298      4882.1979    
  98990000   266.36987     -859.84499      0             -851.06508      4690.2847    
  99000000   307.74205     -859.78525      0             -849.64166      5056.1801    
  99010000   310.14796     -859.84886      0             -849.62597      5046.1452    
  99020000   275.88242     -859.86626      0             -850.77281      4735.6047    
  99030000   299.80068     -859.87098      0             -849.98914      4966.3666    
  99040000   302.8956      -859.71031      0             -849.72647      5044.2507    
  99050000   297.67392     -859.83518      0             -850.02345      4953.0592    
  99060000   314.91804     -859.78566      0             -849.40554      5116.4297    
  99070000   303.12218     -859.78613      0             -849.79482      5007.0492    
  99080000   315.32059     -859.84492      0             -849.45153      5084.9894    
  99090000   308.95005     -859.82461      0             -849.64121      5063.1832    
  99100000   316.69386     -859.69412      0             -849.25547      5147.3341    
  99110000   291.85038     -859.87798      0             -850.2582       4887.3835    
  99120000   284.355       -859.74961      0             -850.37689      4863.5858    
  99130000   285.64027     -859.80706      0             -850.39198      4881.4047    
  99140000   324.22957     -859.78764      0             -849.1006       5162.3124    
  99150000   301.6391      -859.81148      0             -849.86905      4992.6974    
  99160000   277.58758     -859.82473      0             -850.67507      4799.3571    
  99170000   290.14199     -859.76193      0             -850.19846      4910.9373    
  99180000   301.36588     -859.84353      0             -849.91011      4979.6022    
  99190000   295.06052     -859.84129      0             -850.1157       4920.7146    
  99200000   258.10655     -859.82515      0             -851.31761      4619.8677    
  99210000   279.13838     -859.8271       0             -850.62633      4805.0367    
  99220000   280.19451     -859.82362      0             -850.58803      4805.3158    
  99230000   324.59283     -859.80241      0             -849.1034       5170.332     
  99240000   310.83198     -859.86483      0             -849.6194       5052.515     
  99250000   289.94666     -859.7436       0             -850.18657      4910.6575    
  99260000   294.84633     -859.83084      0             -850.11231      4943.5532    
  99270000   324.50025     -859.76779      0             -849.07183      5186.8315    
  99280000   328.43538     -859.838        0             -849.01233      5192.8869    
  99290000   312.50658     -859.80841      0             -849.50778      5082.1955    
  99300000   307.98911     -859.72804      0             -849.57631      5072.3441    
  99310000   319.11216     -859.80114      0             -849.28277      5145.0868    
  99320000   291.65984     -859.8076       0             -850.1941       4909.2815    
  99330000   286.99859     -859.77236      0             -850.3125       4866.3112    
  99340000   310.58364     -859.82725      0             -849.59         5063.2338    
  99350000   304.36549     -859.79503      0             -849.76274      5018.9351    
  99360000   284.66549     -859.82541      0             -850.44246      4842.6584    
  99370000   287.48938     -859.83699      0             -850.36095      4872.0787    
  99380000   326.19099     -859.79453      0             -849.04284      5207.5082    
  99390000   333.92275     -859.79056      0             -848.78402      5261.4339    
  99400000   302.00205     -859.77071      0             -849.81632      5003.9966    
  99410000   288.96583     -859.81893      0             -850.29423      4889.3013    
  99420000   319.93077     -859.76436      0             -849.21901      5166.0968    
  99430000   275.8248      -859.79071      0             -850.69915      4780.3444    
  99440000   284.23822     -859.82022      0             -850.45135      4847.0363    
  99450000   289.60221     -859.8553       0             -850.30962      4870.9528    
  99460000   279.91314     -859.79939      0             -850.57308      4813.6924    
  99470000   319.00328     -859.72348      0             -849.2087       5177.8765    
  99480000   297.2133      -859.85452      0             -850.05797      4938.6754    
  99490000   316.31659     -859.79637      0             -849.37016      5101.1934    
  99500000   307.40427     -859.76319      0             -849.63074      5062.0284    
  99510000   309.13773     -859.77758      0             -849.58798      5071.7218    
  99520000   288.07803     -859.84673      0             -850.35129      4862.5847    
  99530000   311.45614     -859.77329      0             -849.50728      5079.6817    
  99540000   337.26878     -859.7512       0             -848.63437      5316.7959    
  99550000   310.77291     -859.80201      0             -849.55852      5067.1409    
  99560000   298.31049     -859.84023      0             -850.00752      4936.4771    
  99570000   300.26882     -859.81672      0             -849.91946      4990.3431    
  99580000   294.52143     -859.72666      0             -850.01884      4960.8532    
  99590000   291.7306      -859.85586      0             -850.24002      4892.0664    
  99600000   326.6319      -859.78826      0             -849.02203      5200.0587    
  99610000   282.0341      -859.78045      0             -850.48423      4840.9303    
  99620000   288.54767     -859.79201      0             -850.28109      4892.6377    
  99630000   289.25716     -859.85007      0             -850.31577      4860.5799    
  99640000   271.78986     -859.84366      0             -850.8851       4741.0772    
  99650000   269.94722     -859.74669      0             -850.84887      4744.3724    
  99660000   299.22163     -859.86103      0             -849.99828      4957.4073    
  99670000   321.48596     -859.77358      0             -849.17697      5166.3642    
  99680000   298.40473     -859.78836      0             -849.95254      4993.525     
  99690000   277.62466     -859.81197      0             -850.66109      4777.6902    
  99700000   273.28522     -859.8358       0             -850.82796      4745.7566    
  99710000   312.89116     -859.77436      0             -849.46105      5110.7633    
  99720000   332.41683     -859.74321      0             -848.78631      5266.4983    
  99730000   309.69941     -859.82406      0             -849.61595      5052.2602    
  99740000   297.73409     -859.77058      0             -849.95686      4985.4033    
  99750000   277.05527     -859.79225      0             -850.66013      4793.7042    
  99760000   299.16137     -859.81255      0             -849.95179      4949.7093    
  99770000   294.03474     -859.84122      0             -850.14944      4929.4061    
  99780000   306.51156     -859.74365      0             -849.64062      5056.7018    
  99790000   327.62801     -859.82128      0             -849.02222      5198.31      
  99800000   300.79927     -859.78435      0             -849.86961      5003.8999    
  99810000   305.73274     -859.74051      0             -849.66315      5058.0894    
  99820000   280.9105      -859.82494      0             -850.56576      4807.3333    
  99830000   290.33323     -859.82248      0             -850.25271      4883.1988    
  99840000   286.31246     -859.75567      0             -850.31843      4899.3103    
  99850000   269.26886     -859.78983      0             -850.91437      4736.0964    
  99860000   296.87109     -859.78487      0             -849.9996       4956.5909    
  99870000   279.16714     -859.77958      0             -850.57785      4822.8602    
  99880000   294.98156     -859.83531      0             -850.11233      4925.717     
  99890000   285.19505     -859.78331      0             -850.3829       4851.8612    
  99900000   306.57945     -859.78004      0             -849.67477      5052.2191    
  99910000   324.60061     -859.72081      0             -849.02154      5206.3291    
  99920000   319.69868     -859.857        0             -849.3193       5124.1985    
  99930000   305.36215     -859.74267      0             -849.67752      5045.4093    
  99940000   318.14784     -859.73592      0             -849.24934      5157.9127    
  99950000   303.76033     -859.84839      0             -849.83604      4992.6915    
  99960000   286.01556     -859.79975      0             -850.3723       4850.6543    
  99970000   297.42353     -859.78039      0             -849.97691      4980.5555    
  99980000   300.23288     -859.76275      0             -849.86668      5001.8708    
  99990000   272.66736     -859.89011      0             -850.90263      4712.2922    
 100000000   304.64078     -859.78779      0             -849.74643      5009.0784    
Loop time of 6954.99 on 4 procs for 100000000 steps with 256 atoms

Performance: 1242.273 ns/day, 0.019 hours/ns, 14378.163 timesteps/s
99.8% CPU use with 4 MPI tasks x 1 OpenMP threads

MPI task timing breakdown:
Section |  min time  |  avg time  |  max time  |%varavg| %total
---------------------------------------------------------------
Pair    | 4729.2     | 4737.6     | 4744.2     |   7.9 | 68.12
Neigh   | 79.993     | 80.074     | 80.226     |   1.0 |  1.15
Comm    | 1822.3     | 1827.1     | 1832.2     |   8.4 | 26.27
Output  | 0.097736   | 0.11395    | 0.16171    |   8.2 |  0.00
Modify  | 199.3      | 199.7      | 200.17     |   2.6 |  2.87
Other   |            | 110.4      |            |       |  1.59

Nlocal:             64 ave          64 max          64 min
Histogram: 4 0 0 0 0 0 0 0 0 0
Nghost:            761 ave         761 max         761 min
Histogram: 4 0 0 0 0 0 0 0 0 0
Neighs:           2496 ave        2496 max        2496 min
Histogram: 4 0 0 0 0 0 0 0 0 0

Total # of neighbors = 9984
Ave neighs/atom = 39
Neighbor list builds = 1818465
Dangerous builds = 0

next u
jump SELF myloop

# reading data file containing the configuration

read_data Al_alloy.lmpdat
ERROR: Cannot read_data without add keyword after simulation box is defined (src/read_data.cpp:316)
Last command: read_data Al_alloy.lmpdat
