LAMMPS (23 Jun 2022)
OMP_NUM_THREADS environment is not set. Defaulting to 1 thread. (src/comm.cpp:98)
  using 1 OpenMP thread(s) per MPI task
# 3d metal relaxaction testing parameters

#variable u loop 2 9
#label myloop

# initilizing EAM and boundry conditions

units		metal
boundary	p p p

#loop
#variable u loop 2 9
#label myloop

# reading data file containing the configuration

read_data Al_alloy.lmpdat
Reading data file ...
  orthogonal box = (0 0 0) to (16.184 16.184 16.184)
  1 by 2 by 2 MPI processor grid
  reading atoms ...
  256 atoms
  read_data CPU = 0.004 seconds

# defining potentials and other parameters

pair_style	eam/alloy
pair_coeff	* * Al.eam Al

#loop
variable u loop 4 9
label myloop

# Delta t
variable t equal 0.0005*$u
variable t equal 0.0005*4
timestep $t
timestep 0.002

variable b equal 0.3*$u
variable b equal 0.3*4
neighbor	$b bin
neighbor	1.2 bin
neigh_modify	delay 5

# dumping configurations at timesteps
dump mydump.$u all custom 2000000 confdump.$u.*.data id type x y z vx vy vz
dump mydump.4 all custom 2000000 confdump.$u.*.data id type x y z vx vy vz
dump mydump.4 all custom 2000000 confdump.4.*.data id type x y z vx vy vz
dump_modify mydump.$u sort id
dump_modify mydump.4 sort id
# set numerical integrator
## NVE; default is velocity Verlet
fix 1 all nvt temp 300.0 300.0 $(100.0*dt)
fix 1 all nvt temp 300.0 300.0 0.2000000000000000111
thermo 10000

run 100000000
Neighbor list info ...
  update every 1 steps, delay 5 steps, check yes
  max neighbors/atom: 2000, page size: 100000
  master list distance cutoff = 7.48721
  ghost atom cutoff = 7.48721
  binsize = 3.743605, bins = 5 5 5
  1 neighbor lists, perpetual/occasional/extra = 1 0 0
  (1) pair eam/alloy, perpetual
      attributes: half, newton on
      pair build: half/bin/atomonly/newton
      stencil: half/bin/3d
      bin: standard
Per MPI rank memory allocation (min/avg/max) = 4.622 | 4.622 | 4.622 Mbytes
   Step          Temp          E_pair         E_mol          TotEng         Press     
         0   0             -860.15079      0             -860.15079      2342.81      
     10000   285.06447     -860.15079      0             -850.75468      4710.4158    
     20000   306.66867     -860.15079      0             -850.04258      4889.8498    
     30000   292.92526     -860.15079      0             -850.49558      4775.7037    
     40000   299.99836     -860.15079      0             -850.26244      4834.4494    
     50000   296.19022     -860.15079      0             -850.38796      4802.8209    
     60000   282.09216     -860.15079      0             -850.85265      4685.7293    
     70000   306.23529     -860.15079      0             -850.05686      4886.2503    
     80000   289.86263     -860.15079      0             -850.59653      4750.267     
     90000   322.68188     -860.15079      0             -849.51476      5022.8476    
    100000   316.0407      -860.15079      0             -849.73367      4967.6892    
    110000   310.52762     -860.15079      0             -849.91538      4921.9003    
    120000   286.84821     -860.15079      0             -850.69589      4725.2307    
    130000   268.22577     -860.15079      0             -851.30971      4570.5618    
    140000   314.97334     -860.15079      0             -849.76885      4958.8243    
    150000   296.46051     -860.15079      0             -850.37905      4805.0658    
    160000   313.90399     -860.15079      0             -849.80409      4949.9428    
    170000   314.71647     -860.15079      0             -849.77731      4956.6908    
    180000   305.79197     -860.15079      0             -850.07148      4882.5683    
    190000   310.54562     -860.15079      0             -849.91479      4922.0498    
    200000   289.91846     -860.15079      0             -850.59469      4750.7307    
    210000   278.13985     -860.15079      0             -850.98293      4652.9033    
    220000   297.61348     -860.15079      0             -850.34105      4814.6418    
    230000   310.25144     -860.15079      0             -849.92449      4919.6065    
    240000   286.47353     -860.15079      0             -850.70824      4722.1188    
    250000   301.35956     -860.15079      0             -850.21758      4845.7549    
    260000   284.95915     -860.15079      0             -850.75816      4709.5411    
    270000   304.95231     -860.15079      0             -850.09915      4875.5945    
    280000   312.77883     -860.15079      0             -849.84118      4940.5977    
    290000   269.85385     -860.15079      0             -851.25605      4584.0839    
    300000   276.17934     -860.15079      0             -851.04755      4636.6203    
    310000   274.98085     -860.15079      0             -851.08705      4626.6662    
    320000   312.89423     -860.15079      0             -849.83738      4941.5562    
    330000   326.11846     -860.15079      0             -849.40149      5051.3901    
    340000   284.47773     -860.15079      0             -850.77402      4705.5426    
    350000   294.42984     -860.15079      0             -850.44599      4788.2       
    360000   300.55149     -860.15079      0             -850.24421      4839.0434    
    370000   308.48421     -860.15079      0             -849.98274      4904.9287    
    380000   303.47229     -860.15079      0             -850.14794      4863.3022    
    390000   304.87706     -860.15079      0             -850.10163      4874.9695    
    400000   289.97815     -860.15079      0             -850.59272      4751.2264    
    410000   293.76903     -860.15079      0             -850.46777      4782.7116    
    420000   316.657       -860.15079      0             -849.71335      4972.8079    
    430000   304.3674      -860.15079      0             -850.11843      4870.7365    
    440000   294.57421     -860.15079      0             -850.44123      4789.3991    
    450000   296.68332     -860.15079      0             -850.37171      4806.9163    
    460000   296.69693     -860.15079      0             -850.37126      4807.0293    
    470000   311.89187     -860.15079      0             -849.87042      4933.2311    
    480000   295.43435     -860.15079      0             -850.41288      4796.543     
    490000   322.64702     -860.15079      0             -849.51591      5022.5581    
    500000   305.25244     -860.15079      0             -850.08926      4878.0872    
    510000   297.12248     -860.15079      0             -850.35724      4810.5638    
    520000   289.1788      -860.15079      0             -850.61907      4744.5874    
    530000   306.10335     -860.15079      0             -850.06121      4885.1545    
    540000   310.0498      -860.15079      0             -849.93113      4917.9317    
    550000   284.82467     -860.15079      0             -850.76259      4708.4241    
    560000   302.74628     -860.15079      0             -850.17187      4857.2723    
    570000   326.67607     -860.15079      0             -849.38311      5056.0214    
    580000   293.43184     -860.15079      0             -850.47888      4779.9111    
    590000   294.31564     -860.15079      0             -850.44975      4787.2515    
    600000   311.29065     -860.15079      0             -849.89023      4928.2376    
    610000   312.20664     -860.15079      0             -849.86004      4935.8454    
    620000   276.60781     -860.15079      0             -851.03343      4640.179     
    630000   281.18198     -860.15079      0             -850.88266      4678.1698    
    640000   328.69886     -860.15079      0             -849.31644      5072.8217    
    650000   338.53244     -860.15079      0             -848.99231      5154.4946    
    660000   304.13801     -860.15079      0             -850.12599      4868.8313    
    670000   303.82574     -860.15079      0             -850.13629      4866.2377    
    680000   302.72428     -860.15079      0             -850.17259      4857.0896    
    690000   265.55471     -860.15079      0             -851.39775      4548.3773    
    700000   306.05835     -860.15079      0             -850.0627       4884.7807    
    710000   317.36456     -860.15079      0             -849.69003      4978.6845    
    720000   274.79107     -860.15079      0             -851.09331      4625.09      
    730000   296.6769      -860.15079      0             -850.37192      4806.863     
    740000   285.03609     -860.15079      0             -850.75562      4710.1802    
    750000   294.19698     -860.15079      0             -850.45366      4786.266     
    760000   268.42362     -860.15079      0             -851.30319      4572.2051    
    770000   290.98659     -860.15079      0             -850.55948      4759.6021    
    780000   314.66958     -860.15079      0             -849.77886      4956.3014    
    790000   297.73611     -860.15079      0             -850.33701      4815.6603    
    800000   305.74866     -860.15079      0             -850.0729       4882.2086    
    810000   289.66456     -860.15079      0             -850.60306      4748.6219    
    820000   320.59456     -860.15079      0             -849.58356      5005.5113    
    830000   318.72021     -860.15079      0             -849.64535      4989.9439    
    840000   304.64279     -860.15079      0             -850.10936      4873.0238    
    850000   311.39714     -860.15079      0             -849.88672      4929.1221    
    860000   299.10168     -860.15079      0             -850.292        4827.002     
    870000   331.02701     -860.15079      0             -849.2397       5092.1582    
    880000   298.55214     -860.15079      0             -850.31011      4822.4378    
    890000   282.63014     -860.15079      0             -850.83492      4690.1975    
    900000   311.07819     -860.15079      0             -849.89724      4926.473     
    910000   293.93025     -860.15079      0             -850.46246      4784.0507    
    920000   304.98248     -860.15079      0             -850.09816      4875.8451    
    930000   287.37343     -860.15079      0             -850.67858      4729.5929    
    940000   276.15286     -860.15079      0             -851.04842      4636.4003    
    950000   312.5335      -860.15079      0             -849.84927      4938.5601    
    960000   313.95332     -860.15079      0             -849.80247      4950.3524    
    970000   291.56915     -860.15079      0             -850.54028      4764.4405    
    980000   293.71785     -860.15079      0             -850.46946      4782.2866    
    990000   305.67975     -860.15079      0             -850.07518      4881.6362    
   1000000   285.4595      -860.15079      0             -850.74166      4713.6967    
   1010000   313.4094      -860.15079      0             -849.8204       4945.8349    
   1020000   306.97965     -860.15079      0             -850.03233      4892.4325    
   1030000   307.27467     -860.15079      0             -850.02261      4894.8828    
   1040000   302.38779     -860.15079      0             -850.18368      4854.2949    
   1050000   283.73658     -860.15079      0             -850.79845      4699.387     
   1060000   293.95503     -860.15079      0             -850.46164      4784.2565    
   1070000   291.83958     -860.15079      0             -850.53137      4766.6865    
   1080000   329.06518     -860.15079      0             -849.30436      5075.8641    
   1090000   306.95406     -860.15079      0             -850.03317      4892.22      
   1100000   328.81257     -860.15079      0             -849.31269      5073.7661    
   1110000   288.05565     -860.15079      0             -850.65609      4735.2591    
   1120000   300.14913     -860.15079      0             -850.25747      4835.7016    
   1130000   322.53114     -860.15079      0             -849.51973      5021.5956    
   1140000   315.52889     -860.15079      0             -849.75054      4963.4383    
   1150000   318.8047      -860.15079      0             -849.64256      4990.6456    
   1160000   295.51147     -860.15079      0             -850.41034      4797.1835    
   1170000   318.53153     -860.15079      0             -849.65156      4988.3769    
   1180000   301.43376     -860.15079      0             -850.21513      4846.3711    
   1190000   301.5083      -860.15079      0             -850.21267      4846.9902    
   1200000   311.18498     -860.15079      0             -849.89372      4927.36      
   1210000   307.01183     -860.15079      0             -850.03127      4892.6999    
   1220000   303.60047     -860.15079      0             -850.14371      4864.3668    
   1230000   292.30737     -860.15079      0             -850.51595      4770.5718    
   1240000   288.95354     -860.15079      0             -850.62649      4742.7165    
   1250000   307.55032     -860.15079      0             -850.01352      4897.1722    
   1260000   344.10744     -860.15079      0             -848.80855      5200.7978    
   1270000   313.88336     -860.15079      0             -849.80477      4949.7714    
   1280000   317.79612     -860.15079      0             -849.6758       4982.2689    
   1290000   287.29436     -860.15079      0             -850.68118      4728.9362    
   1300000   298.59018     -860.15079      0             -850.30886      4822.7537    
   1310000   295.88132     -860.15079      0             -850.39815      4800.2552    
   1320000   306.50334     -860.15079      0             -850.04803      4888.4766    
   1330000   321.61524     -860.15079      0             -849.54992      5013.9886    
   1340000   298.47499     -860.15079      0             -850.31265      4821.797     
   1350000   326.27025     -860.15079      0             -849.39649      5052.6508    
   1360000   293.51662     -860.15079      0             -850.47609      4780.6152    
   1370000   299.64525     -860.15079      0             -850.27408      4831.5166    
   1380000   281.12839     -860.15079      0             -850.88442      4677.7247    
   1390000   302.48785     -860.15079      0             -850.18039      4855.1258    
   1400000   307.83345     -860.15079      0             -850.00419      4899.5238    
   1410000   309.29605     -860.15079      0             -849.95598      4911.6714    
   1420000   307.77489     -860.15079      0             -850.00612      4899.0374    
   1430000   269.89959     -860.15079      0             -851.25454      4584.4637    
   1440000   283.32265     -860.15079      0             -850.8121       4695.9491    
   1450000   311.34918     -860.15079      0             -849.8883       4928.7237    
   1460000   283.67909     -860.15079      0             -850.80035      4698.9095    
   1470000   313.88681     -860.15079      0             -849.80466      4949.8       
   1480000   303.54379     -860.15079      0             -850.14558      4863.896     
   1490000   322.83381     -860.15079      0             -849.50976      5024.1094    
   1500000   314.75936     -860.15079      0             -849.7759       4957.047     
   1510000   275.68198     -860.15079      0             -851.06394      4632.4895    
   1520000   280.70992     -860.15079      0             -850.89822      4674.2491    
   1530000   306.63768     -860.15079      0             -850.0436       4889.5923    
   1540000   299.81636     -860.15079      0             -850.26844      4832.9378    
   1550000   308.87504     -860.15079      0             -849.96986      4908.1747    
   1560000   303.73237     -860.15079      0             -850.13936      4865.4623    
   1570000   291.62269     -860.15079      0             -850.53852      4764.8852    
   1580000   306.09725     -860.15079      0             -850.06141      4885.1038    
   1590000   305.125       -860.15079      0             -850.09346      4877.0288    
   1600000   307.25098     -860.15079      0             -850.02339      4894.6861    
   1610000   284.82147     -860.15079      0             -850.76269      4708.3976    
   1620000   311.56327     -860.15079      0             -849.88125      4930.5019    
   1630000   284.73857     -860.15079      0             -850.76543      4707.7091    
   1640000   301.37019     -860.15079      0             -850.21722      4845.8432    
   1650000   299.1069      -860.15079      0             -850.29183      4827.0454    
   1660000   325.57301     -860.15079      0             -849.41947      5046.8599    
   1670000   282.72893     -860.15079      0             -850.83167      4691.018     
   1680000   291.8887      -860.15079      0             -850.52975      4767.0945    
   1690000   296.9361      -860.15079      0             -850.36338      4809.0157    
   1700000   300.94158     -860.15079      0             -850.23135      4842.2833    
   1710000   308.86439     -860.15079      0             -849.97021      4908.0863    
   1720000   284.97619     -860.15079      0             -850.75759      4709.6826    
   1730000   279.22994     -860.15079      0             -850.947        4661.9571    
   1740000   308.85034     -860.15079      0             -849.97067      4907.9696    
   1750000   280.01939     -860.15079      0             -850.92098      4668.5139    
   1760000   310.76255     -860.15079      0             -849.90764      4923.8515    
   1770000   281.45509     -860.15079      0             -850.87365      4680.4381    
   1780000   298.75325     -860.15079      0             -850.30348      4824.1081    
   1790000   288.39562     -860.15079      0             -850.64488      4738.0827    
   1800000   291.4359      -860.15079      0             -850.54467      4763.3338    
   1810000   292.11959     -860.15079      0             -850.52214      4769.0122    
   1820000   297.77753     -860.15079      0             -850.33564      4816.0043    
   1830000   327.50145     -860.15079      0             -849.3559       5062.8766    
   1840000   295.04397     -860.15079      0             -850.42575      4793.3007    
   1850000   291.2567      -860.15079      0             -850.55058      4761.8455    
   1860000   297.85454     -860.15079      0             -850.33311      4816.6439    
   1870000   307.22224     -860.15079      0             -850.02433      4894.4474    
   1880000   315.7762      -860.15079      0             -849.74238      4965.4924    
   1890000   279.69117     -860.15079      0             -850.93179      4665.7878    
   1900000   284.31645     -860.15079      0             -850.77934      4704.2031    
   1910000   322.83503     -860.15079      0             -849.50972      5024.1196    
   1920000   298.07622     -860.15079      0             -850.3258       4818.485     
   1930000   307.31806     -860.15079      0             -850.02118      4895.2432    
   1940000   308.42515     -860.15079      0             -849.98468      4904.4381    
   1950000   285.21499     -860.15079      0             -850.74972      4711.666     
   1960000   284.37897     -860.15079      0             -850.77728      4704.7224    
   1970000   325.71273     -860.15079      0             -849.41486      5048.0204    
   1980000   327.04617     -860.15079      0             -849.37091      5059.0953    
   1990000   334.57404     -860.15079      0             -849.12278      5121.618     
   2000000   317.72729     -860.15079      0             -849.67807      4981.6972    
   2010000   294.40086     -860.15079      0             -850.44694      4787.9593    
   2020000   327.25684     -860.15079      0             -849.36397      5060.845     
   2030000   280.16017     -860.15079      0             -850.91634      4669.6831    
   2040000   324.86229     -860.15079      0             -849.44289      5040.957     
   2050000   285.041       -860.15079      0             -850.75546      4710.2209    
   2060000   296.13698     -860.15079      0             -850.38972      4802.3786    
   2070000   295.77067     -860.15079      0             -850.40179      4799.3363    
   2080000   289.67739     -860.15079      0             -850.60264      4748.7285    
   2090000   284.30239     -860.15079      0             -850.7798       4704.0864    
   2100000   267.99739     -860.15079      0             -851.31724      4568.665     
   2110000   301.56375     -860.15079      0             -850.21085      4847.4507    
   2120000   311.9156      -860.15079      0             -849.86963      4933.4281    
   2130000   333.58972     -860.15079      0             -849.15523      5113.4428    
   2140000   328.54718     -860.15079      0             -849.32144      5071.5619    
   2150000   301.22903     -860.15079      0             -850.22188      4844.6707    
   2160000   294.2234      -860.15079      0             -850.45279      4786.4854    
   2170000   300.50692     -860.15079      0             -850.24568      4838.6733    
   2180000   311.49513     -860.15079      0             -849.88349      4929.9359    
   2190000   293.3175      -860.15079      0             -850.48265      4778.9615    
   2200000   311.2232      -860.15079      0             -849.89246      4927.6774    
   2210000   311.07044     -860.15079      0             -849.89749      4926.4086    
   2220000   327.2926      -860.15079      0             -849.36279      5061.1419    
   2230000   283.98049     -860.15079      0             -850.79041      4701.4128    
   2240000   305.40905     -860.15079      0             -850.0841       4879.388     
   2250000   288.29325     -860.15079      0             -850.64826      4737.2325    
   2260000   304.30998     -860.15079      0             -850.12033      4870.2596    
   2270000   321.41815     -860.15079      0             -849.55642      5012.3517    
   2280000   320.18034     -860.15079      0             -849.59722      5002.071     
   2290000   305.94992     -860.15079      0             -850.06627      4883.8801    
   2300000   286.50921     -860.15079      0             -850.70706      4722.4152    
   2310000   317.28527     -860.15079      0             -849.69264      4978.026     
   2320000   298.2748      -860.15079      0             -850.31925      4820.1344    
   2330000   280.6425      -860.15079      0             -850.90044      4673.6891    
   2340000   305.26084     -860.15079      0             -850.08898      4878.157     
   2350000   297.61223     -860.15079      0             -850.34109      4814.6314    
   2360000   313.85134     -860.15079      0             -849.80583      4949.5055    
   2370000   320.41429     -860.15079      0             -849.58951      5004.0141    
   2380000   317.60429     -860.15079      0             -849.68213      4980.6756    
   2390000   309.72695     -860.15079      0             -849.94178      4915.2503    
   2400000   290.13847     -860.15079      0             -850.58744      4752.558     
   2410000   318.84178     -860.15079      0             -849.64134      4990.9536    
   2420000   277.98117     -860.15079      0             -850.98816      4651.5854    
   2430000   322.31726     -860.15079      0             -849.52678      5019.8193    
   2440000   285.74735     -860.15079      0             -850.73217      4716.0875    
   2450000   307.5352      -860.15079      0             -850.01402      4897.0467    
   2460000   290.69372     -860.15079      0             -850.56914      4757.1696    
   2470000   279.88501     -860.15079      0             -850.92541      4667.3977    
   2480000   324.9147      -860.15079      0             -849.44117      5041.3923    
   2490000   282.06759     -860.15079      0             -850.85346      4685.5252    
   2500000   310.1261      -860.15079      0             -849.92862      4918.5655    
   2510000   266.57482     -860.15079      0             -851.36413      4556.8498    
   2520000   302.45131     -860.15079      0             -850.18159      4854.8224    
   2530000   281.51335     -860.15079      0             -850.87173      4680.922     
   2540000   277.53473     -860.15079      0             -851.00287      4647.8775    
   2550000   311.30562     -860.15079      0             -849.88974      4928.3619    
   2560000   289.46404     -860.15079      0             -850.60967      4746.9565    
   2570000   301.46539     -860.15079      0             -850.21409      4846.6338    
   2580000   296.56485     -860.15079      0             -850.37562      4805.9323    
   2590000   274.62442     -860.15079      0             -851.0988       4623.7059    
   2600000   277.43486     -860.15079      0             -851.00617      4647.048     
   2610000   303.44567     -860.15079      0             -850.14881      4863.0811    
   2620000   293.15821     -860.15079      0             -850.4879       4777.6384    
   2630000   290.72777     -860.15079      0             -850.56801      4757.4524    
   2640000   278.90332     -860.15079      0             -850.95776      4659.2444    
   2650000   313.46267     -860.15079      0             -849.81864      4946.2774    
   2660000   284.03341     -860.15079      0             -850.78867      4701.8523    
   2670000   312.34781     -860.15079      0             -849.85539      4937.0179    
   2680000   329.48668     -860.15079      0             -849.29047      5079.3649    
   2690000   326.39019     -860.15079      0             -849.39253      5053.647     
   2700000   280.11263     -860.15079      0             -850.9179       4669.2883    
   2710000   279.70648     -860.15079      0             -850.93129      4665.915     
   2720000   318.85807     -860.15079      0             -849.6408       4991.0889    
   2730000   312.05773     -860.15079      0             -849.86495      4934.6086    
   2740000   296.05562     -860.15079      0             -850.3924       4801.703     
   2750000   320.82492     -860.15079      0             -849.57597      5007.4246    
   2760000   307.12014     -860.15079      0             -850.0277       4893.5994    
   2770000   299.70037     -860.15079      0             -850.27226      4831.9744    
   2780000   279.64315     -860.15079      0             -850.93338      4665.389     
   2790000   301.20162     -860.15079      0             -850.22278      4844.4431    
   2800000   272.82508     -860.15079      0             -851.15811      4608.7615    
   2810000   287.65018     -860.15079      0             -850.66945      4731.8915    
   2820000   299.2827      -860.15079      0             -850.28603      4828.5055    
   2830000   290.97729     -860.15079      0             -850.55979      4759.5248    
   2840000   287.34152     -860.15079      0             -850.67963      4729.3279    
   2850000   296.95165     -860.15079      0             -850.36287      4809.1449    
   2860000   291.74885     -860.15079      0             -850.53436      4765.933     
   2870000   295.96781     -860.15079      0             -850.39529      4800.9736    
   2880000   272.70415     -860.15079      0             -851.1621       4607.7571    
   2890000   291.43811     -860.15079      0             -850.5446       4763.3521    
   2900000   305.73338     -860.15079      0             -850.07341      4882.0816    
   2910000   318.25272     -860.15079      0             -849.66075      4986.0612    
   2920000   302.80403     -860.15079      0             -850.16996      4857.752     
   2930000   349.36869     -860.15079      0             -848.63513      5244.4952    
   2940000   302.00157     -860.15079      0             -850.19641      4851.0871    
   2950000   289.40172     -860.15079      0             -850.61172      4746.4389    
   2960000   272.26481     -860.15079      0             -851.17658      4604.1081    
   2970000   305.99364     -860.15079      0             -850.06483      4884.2433    
   2980000   276.87764     -860.15079      0             -851.02453      4642.42      
   2990000   301.80643     -860.15079      0             -850.20285      4849.4663    
   3000000   311.72583     -860.15079      0             -849.87589      4931.852     
   3010000   301.55476     -860.15079      0             -850.21114      4847.3761    
   3020000   309.61804     -860.15079      0             -849.94536      4914.3458    
   3030000   298.91556     -860.15079      0             -850.29813      4825.4562    
   3040000   335.85527     -860.15079      0             -849.08055      5132.2593    
   3050000   306.46413     -860.15079      0             -850.04932      4888.1509    
   3060000   324.77202     -860.15079      0             -849.44587      5040.2073    
   3070000   290.17716     -860.15079      0             -850.58616      4752.8793    
   3080000   300.98714     -860.15079      0             -850.22985      4842.6617    
   3090000   311.15599     -860.15079      0             -849.89467      4927.1192    
   3100000   270.86226     -860.15079      0             -851.22281      4592.4592    
   3110000   328.02352     -860.15079      0             -849.3387       5067.2127    
   3120000   283.47401     -860.15079      0             -850.80711      4697.2062    
   3130000   299.41395     -860.15079      0             -850.28171      4829.5956    
   3140000   319.30899     -860.15079      0             -849.62594      4994.834     
   3150000   305.71447     -860.15079      0             -850.07403      4881.9246    
   3160000   311.07091     -860.15079      0             -849.89748      4926.4126    
   3170000   297.52824     -860.15079      0             -850.34386      4813.9338    
   3180000   319.19769     -860.15079      0             -849.62961      4993.9096    
   3190000   298.25295     -860.15079      0             -850.31997      4819.9529    
   3200000   291.24651     -860.15079      0             -850.55092      4761.7608    
   3210000   289.70766     -860.15079      0             -850.60164      4748.9799    
   3220000   307.58284     -860.15079      0             -850.01245      4897.4424    
   3230000   290.44557     -860.15079      0             -850.57732      4755.1086    
   3240000   299.83884     -860.15079      0             -850.2677       4833.1245    
   3250000   318.65692     -860.15079      0             -849.64743      4989.4182    
   3260000   322.03175     -860.15079      0             -849.53619      5017.448     
   3270000   283.32534     -860.15079      0             -850.81201      4695.9715    
   3280000   321.39968     -860.15079      0             -849.55703      5012.1983    
   3290000   282.53465     -860.15079      0             -850.83807      4689.4044    
   3300000   317.1658      -860.15079      0             -849.69658      4977.0337    
   3310000   319.27329     -860.15079      0             -849.62712      4994.5375    
   3320000   308.53982     -860.15079      0             -849.9809       4905.3906    
   3330000   296.81241     -860.15079      0             -850.36746      4807.9884    
   3340000   308.37018     -860.15079      0             -849.9865       4903.9816    
   3350000   293.47557     -860.15079      0             -850.47744      4780.2743    
   3360000   304.44337     -860.15079      0             -850.11593      4871.3674    
   3370000   307.66857     -860.15079      0             -850.00962      4898.1544    
   3380000   296.30466     -860.15079      0             -850.38419      4803.7713    
   3390000   298.772       -860.15079      0             -850.30286      4824.2638    
   3400000   297.4624      -860.15079      0             -850.34603      4813.387     
   3410000   296.1667      -860.15079      0             -850.38874      4802.6255    
   3420000   302.84429     -860.15079      0             -850.16864      4858.0863    
   3430000   302.57843     -860.15079      0             -850.1774       4855.8782    
   3440000   276.85281     -860.15079      0             -851.02535      4642.2138    
   3450000   283.98325     -860.15079      0             -850.79032      4701.4357    
   3460000   290.41705     -860.15079      0             -850.57826      4754.8718    
   3470000   279.64205     -860.15079      0             -850.93341      4665.3799    
   3480000   275.05101     -860.15079      0             -851.08474      4627.2489    
   3490000   296.97376     -860.15079      0             -850.36214      4809.3285    
   3500000   307.47728     -860.15079      0             -850.01593      4896.5657    
   3510000   301.45538     -860.15079      0             -850.21442      4846.5507    
   3520000   279.1816      -860.15079      0             -850.94859      4661.5556    
   3530000   326.71967     -860.15079      0             -849.38167      5056.3835    
   3540000   290.07763     -860.15079      0             -850.58944      4752.0527    
   3550000   292.30956     -860.15079      0             -850.51588      4770.59      
   3560000   300.96995     -860.15079      0             -850.23042      4842.519     
   3570000   295.83895     -860.15079      0             -850.39954      4799.9034    
   3580000   288.50025     -860.15079      0             -850.64144      4738.9517    
   3590000   295.28587     -860.15079      0             -850.41777      4795.3098    
   3600000   289.56423     -860.15079      0             -850.60637      4747.7887    
   3610000   293.74169     -860.15079      0             -850.46867      4782.4846    
   3620000   298.27628     -860.15079      0             -850.3192       4820.1467    
   3630000   305.08365     -860.15079      0             -850.09482      4876.6853    
   3640000   288.90473     -860.15079      0             -850.6281       4742.3111    
   3650000   282.39995     -860.15079      0             -850.84251      4688.2856    
   3660000   274.82491     -860.15079      0             -851.09219      4625.371     
   3670000   289.40292     -860.15079      0             -850.61168      4746.4488    
   3680000   297.42097     -860.15079      0             -850.3474       4813.0429    
   3690000   280.75963     -860.15079      0             -850.89658      4674.662     
   3700000   313.72746     -860.15079      0             -849.80991      4948.4766    
   3710000   320.68104     -860.15079      0             -849.58071      5006.2296    
   3720000   321.21782     -860.15079      0             -849.56302      5010.6878    
   3730000   299.28271     -860.15079      0             -850.28603      4828.5055    
   3740000   283.26767     -860.15079      0             -850.81391      4695.4925    
   3750000   300.57631     -860.15079      0             -850.24339      4839.2495    
   3760000   290.39337     -860.15079      0             -850.57904      4754.675     
   3770000   278.27552     -860.15079      0             -850.97846      4654.0301    
   3780000   328.11512     -860.15079      0             -849.33568      5067.9734    
   3790000   285.17719     -860.15079      0             -850.75097      4711.352     
   3800000   321.03508     -860.15079      0             -849.56904      5009.1701    
   3810000   275.44436     -860.15079      0             -851.07178      4630.5159    
   3820000   269.07519     -860.15079      0             -851.28171      4577.6167    
   3830000   283.39321     -860.15079      0             -850.80977      4696.5352    
   3840000   289.09575     -860.15079      0             -850.62181      4743.8977    
   3850000   306.00729     -860.15079      0             -850.06438      4884.3566    
   3860000   318.66319     -860.15079      0             -849.64722      4989.4703    
   3870000   298.42077     -860.15079      0             -850.31444      4821.3467    
   3880000   307.73868     -860.15079      0             -850.00731      4898.7367    
   3890000   304.92468     -860.15079      0             -850.10006      4875.365     
   3900000   299.47255     -860.15079      0             -850.27977      4830.0823    
   3910000   293.52051     -860.15079      0             -850.47596      4780.6476    
   3920000   327.20211     -860.15079      0             -849.36577      5060.3905    
   3930000   310.03383     -860.15079      0             -849.93166      4917.7991    
   3940000   285.65131     -860.15079      0             -850.73534      4715.2899    
   3950000   302.2203      -860.15079      0             -850.1892       4852.9037    
   3960000   303.70875     -860.15079      0             -850.14014      4865.2661    
   3970000   296.15487     -860.15079      0             -850.38913      4802.5273    
   3980000   314.38005     -860.15079      0             -849.7884       4953.8967    
   3990000   287.04837     -860.15079      0             -850.68929      4726.8931    
   4000000   281.25517     -860.15079      0             -850.88024      4678.7777    
   4010000   303.97356     -860.15079      0             -850.13141      4867.4655    
   4020000   326.81303     -860.15079      0             -849.3786       5057.1589    
   4030000   300.90366     -860.15079      0             -850.2326       4841.9684    
   4040000   316.89361     -860.15079      0             -849.70555      4974.7731    
   4050000   300.77362     -860.15079      0             -850.23689      4840.8883    
   4060000   298.38224     -860.15079      0             -850.31571      4821.0267    
   4070000   321.26562     -860.15079      0             -849.56145      5011.0848    
   4080000   309.5695      -860.15079      0             -849.94696      4913.9426    
   4090000   307.37699     -860.15079      0             -850.01923      4895.7327    
   4100000   309.30654     -860.15079      0             -849.95563      4911.7585    
   4110000   285.92938     -860.15079      0             -850.72617      4717.5994    
   4120000   278.99513     -860.15079      0             -850.95474      4660.0069    
   4130000   280.41938     -860.15079      0             -850.90779      4671.836     
   4140000   280.9353      -860.15079      0             -850.89079      4676.1209    
   4150000   290.28182     -860.15079      0             -850.58271      4753.7486    
   4160000   280.09783     -860.15079      0             -850.91839      4669.1653    
   4170000   279.52953     -860.15079      0             -850.93712      4664.4453    
   4180000   275.63337     -860.15079      0             -851.06555      4632.0857    
   4190000   268.98259     -860.15079      0             -851.28476      4576.8476    
   4200000   304.36032     -860.15079      0             -850.11867      4870.6777    
   4210000   266.53816     -860.15079      0             -851.36534      4556.5454    
   4220000   270.75447     -860.15079      0             -851.22636      4591.564     
   4230000   295.90639     -860.15079      0             -850.39732      4800.4635    
   4240000   307.36173     -860.15079      0             -850.01974      4895.6059    
   4250000   317.24325     -860.15079      0             -849.69403      4977.677     
   4260000   295.09562     -860.15079      0             -850.42404      4793.7297    
   4270000   305.60064     -860.15079      0             -850.07778      4880.9792    
   4280000   328.71517     -860.15079      0             -849.3159       5072.9572    
   4290000   270.831       -860.15079      0             -851.22384      4592.1996    
   4300000   293.17035     -860.15079      0             -850.4875       4777.7393    
   4310000   309.22635     -860.15079      0             -849.95828      4911.0925    
   4320000   321.76713     -860.15079      0             -849.54491      5015.2501    
   4330000   323.57428     -860.15079      0             -849.48535      5030.2595    
   4340000   270.24285     -860.15079      0             -851.24322      4587.3147    
   4350000   272.63256     -860.15079      0             -851.16446      4607.1625    
   4360000   325.49526     -860.15079      0             -849.42203      5046.2141    
   4370000   287.91794     -860.15079      0             -850.66063      4734.1153    
   4380000   306.13535     -860.15079      0             -850.06016      4885.4202    
   4390000   312.19803     -860.15079      0             -849.86033      4935.7739    
   4400000   299.51393     -860.15079      0             -850.27841      4830.4259    
   4410000   304.55317     -860.15079      0             -850.11231      4872.2794    
   4420000   321.30689     -860.15079      0             -849.56008      5011.4276    
   4430000   273.1896      -860.15079      0             -851.1461       4611.789     
   4440000   315.32741     -860.15079      0             -849.75718      4961.765     
   4450000   305.30184     -860.15079      0             -850.08763      4878.4975    
   4460000   294.75154     -860.15079      0             -850.43538      4790.8718    
   4470000   315.09705     -860.15079      0             -849.76477      4959.8517    
   4480000   302.0643      -860.15079      0             -850.19435      4851.6081    
   4490000   289.57803     -860.15079      0             -850.60591      4747.9033    
   4500000   281.37298     -860.15079      0             -850.87636      4679.7561    
   4510000   284.28101     -860.15079      0             -850.78051      4703.9088    
   4520000   300.7979      -860.15079      0             -850.23609      4841.09      
   4530000   325.9734      -860.15079      0             -849.40627      5050.1853    
   4540000   293.77978     -860.15079      0             -850.46742      4782.8009    
   4550000   278.48069     -860.15079      0             -850.97169      4655.7342    
   4560000   275.81766     -860.15079      0             -851.05947      4633.6163    
   4570000   282.15553     -860.15079      0             -850.85057      4686.2556    
   4580000   298.67228     -860.15079      0             -850.30615      4823.4357    
   4590000   311.34762     -860.15079      0             -849.88836      4928.7108    
   4600000   309.99465     -860.15079      0             -849.93295      4917.4737    
   4610000   298.98064     -860.15079      0             -850.29599      4825.9967    
   4620000   302.28333     -860.15079      0             -850.18713      4853.4272    
   4630000   289.92981     -860.15079      0             -850.59432      4750.825     
   4640000   312.36866     -860.15079      0             -849.8547       4937.191     
   4650000   292.58146     -860.15079      0             -850.50691      4772.8482    
   4660000   286.70966     -860.15079      0             -850.70046      4724.08      
   4670000   293.36363     -860.15079      0             -850.48113      4779.3445    
   4680000   309.39879     -860.15079      0             -849.95259      4912.5248    
   4690000   301.02321     -860.15079      0             -850.22866      4842.9613    
   4700000   280.3424      -860.15079      0             -850.91033      4671.1967    
   4710000   316.90461     -860.15079      0             -849.70519      4974.8644    
   4720000   297.91948     -860.15079      0             -850.33097      4817.1832    
   4730000   320.76189     -860.15079      0             -849.57805      5006.9011    
   4740000   298.03355     -860.15079      0             -850.32721      4818.1306    
   4750000   297.81921     -860.15079      0             -850.33427      4816.3504    
   4760000   368.8709      -860.15079      0             -847.99231      5406.4709    
   4770000   294.93317     -860.15079      0             -850.4294       4792.3804    
   4780000   311.27299     -860.15079      0             -849.89082      4928.0909    
   4790000   294.78244     -860.15079      0             -850.43437      4791.1285    
   4800000   306.67111     -860.15079      0             -850.0425       4889.87      
   4810000   310.69981     -860.15079      0             -849.90971      4923.3304    
   4820000   275.98039     -860.15079      0             -851.05411      4634.9679    
   4830000   335.1991      -860.15079      0             -849.10218      5126.8095    
   4840000   296.8447      -860.15079      0             -850.36639      4808.2566    
   4850000   285.18855     -860.15079      0             -850.75059      4711.4464    
   4860000   287.8465      -860.15079      0             -850.66298      4733.522     
   4870000   284.74118     -860.15079      0             -850.76534      4707.7308    
   4880000   283.79726     -860.15079      0             -850.79645      4699.891     
   4890000   291.53429     -860.15079      0             -850.54143      4764.151     
   4900000   304.41129     -860.15079      0             -850.11699      4871.101     
   4910000   299.13079     -860.15079      0             -850.29104      4827.2438    
   4920000   330.43811     -860.15079      0             -849.25911      5087.2671    
   4930000   316.47423     -860.15079      0             -849.71938      4971.2899    
   4940000   326.7561      -860.15079      0             -849.38047      5056.6861    
   4950000   311.2131      -860.15079      0             -849.89279      4927.5935    
   4960000   297.37593     -860.15079      0             -850.34888      4812.6687    
   4970000   289.12735     -860.15079      0             -850.62077      4744.1601    
   4980000   301.253       -860.15079      0             -850.22109      4844.8699    
   4990000   295.38303     -860.15079      0             -850.41457      4796.1167    
   5000000   298.69438     -860.15079      0             -850.30542      4823.6192    
   5010000   286.597       -860.15079      0             -850.70417      4723.1443    
   5020000   290.4631      -860.15079      0             -850.57674      4755.2542    
   5030000   326.13258     -860.15079      0             -849.40102      5051.5074    
   5040000   294.30284     -860.15079      0             -850.45017      4787.1452    
   5050000   273.35271     -860.15079      0             -851.14072      4613.1437    
   5060000   287.07883     -860.15079      0             -850.68829      4727.1461    
   5070000   309.81374     -860.15079      0             -849.93891      4915.9711    
   5080000   304.65147     -860.15079      0             -850.10907      4873.0958    
   5090000   313.34729     -860.15079      0             -849.82244      4945.3191    
   5100000   274.56357     -860.15079      0             -851.10081      4623.2005    
   5110000   289.2864      -860.15079      0             -850.61552      4745.4811    
   5120000   309.12644     -860.15079      0             -849.96157      4910.2628    
   5130000   316.75491     -860.15079      0             -849.71012      4973.6211    
   5140000   316.70006     -860.15079      0             -849.71193      4973.1655    
   5150000   303.08827     -860.15079      0             -850.16059      4860.1127    
   5160000   275.74018     -860.15079      0             -851.06202      4632.9728    
   5170000   294.4467      -860.15079      0             -850.44543      4788.34      
   5180000   313.54551     -860.15079      0             -849.81591      4946.9654    
   5190000   288.18226     -860.15079      0             -850.65192      4736.3107    
   5200000   275.92291     -860.15079      0             -851.056        4634.4905    
   5210000   319.1486      -860.15079      0             -849.63122      4993.5019    
   5220000   295.53796     -860.15079      0             -850.40946      4797.4035    
   5230000   300.8362      -860.15079      0             -850.23483      4841.4081    
   5240000   308.10567     -860.15079      0             -849.99521      4901.7848    
   5250000   310.50829     -860.15079      0             -849.91602      4921.7397    
   5260000   336.64172     -860.15079      0             -849.05463      5138.7912    
   5270000   309.20812     -860.15079      0             -849.95888      4910.9412    
   5280000   294.76071     -860.15079      0             -850.43508      4790.9481    
   5290000   286.56402     -860.15079      0             -850.70526      4722.8703    
   5300000   313.13575     -860.15079      0             -849.82942      4943.5621    
   5310000   312.43414     -860.15079      0             -849.85254      4937.7349    
   5320000   320.60895     -860.15079      0             -849.58309      5005.6308    
   5330000   291.02297     -860.15079      0             -850.55828      4759.9042    
   5340000   305.8614      -860.15079      0             -850.06919      4883.145     
   5350000   291.73774     -860.15079      0             -850.53472      4765.8408    
   5360000   284.43449     -860.15079      0             -850.77545      4705.1836    
   5370000   292.16159     -860.15079      0             -850.52075      4769.361     
   5380000   295.87046     -860.15079      0             -850.3985       4800.165     
   5390000   296.91891     -860.15079      0             -850.36395      4808.873     
   5400000   323.80577     -860.15079      0             -849.47772      5032.1821    
   5410000   289.82041     -860.15079      0             -850.59792      4749.9163    
   5420000   308.58061     -860.15079      0             -849.97956      4905.7293    
   5430000   270.72355     -860.15079      0             -851.22738      4591.3072    
   5440000   301.6027      -860.15079      0             -850.20956      4847.7743    
   5450000   311.53645     -860.15079      0             -849.88213      4930.2791    
   5460000   281.658       -860.15079      0             -850.86697      4682.1233    
   5470000   292.59037     -860.15079      0             -850.50662      4772.9223    
   5480000   311.84642     -860.15079      0             -849.87191      4932.8536    
   5490000   274.81059     -860.15079      0             -851.09267      4625.2521    
   5500000   304.65913     -860.15079      0             -850.10882      4873.1595    
   5510000   288.87738     -860.15079      0             -850.629        4742.084     
   5520000   285.50594     -860.15079      0             -850.74013      4714.0825    
   5530000   287.30695     -860.15079      0             -850.68077      4729.0408    
   5540000   290.61575     -860.15079      0             -850.57171      4756.5221    
   5550000   302.13507     -860.15079      0             -850.19201      4852.1959    
   5560000   292.53068     -860.15079      0             -850.50859      4772.4265    
   5570000   311.79874     -860.15079      0             -849.87349      4932.4575    
   5580000   318.27884     -860.15079      0             -849.65989      4986.2781    
   5590000   306.51392     -860.15079      0             -850.04768      4888.5644    
   5600000   268.48777     -860.15079      0             -851.30107      4572.7379    
   5610000   273.48701     -860.15079      0             -851.13629      4614.2591    
   5620000   287.03388     -860.15079      0             -850.68977      4726.7728    
   5630000   303.71282     -860.15079      0             -850.14001      4865.2999    
   5640000   309.73182     -860.15079      0             -849.94161      4915.2908    
   5650000   325.61519     -860.15079      0             -849.41808      5047.2102    
   5660000   298.19312     -860.15079      0             -850.32195      4819.456     
   5670000   291.53517     -860.15079      0             -850.5414       4764.1583    
   5680000   288.79932     -860.15079      0             -850.63158      4741.4356    
   5690000   312.75843     -860.15079      0             -849.84185      4940.4283    
   5700000   274.60382     -860.15079      0             -851.09948      4623.5348    
   5710000   303.52918     -860.15079      0             -850.14606      4863.7746    
   5720000   283.7374      -860.15079      0             -850.79843      4699.3939    
   5730000   295.45485     -860.15079      0             -850.4122       4796.7132    
   5740000   289.05207     -860.15079      0             -850.62325      4743.5349    
   5750000   298.75961     -860.15079      0             -850.30327      4824.161     
   5760000   296.89163     -860.15079      0             -850.36484      4808.6464    
   5770000   267.1323      -860.15079      0             -851.34575      4561.48      
   5780000   288.32654     -860.15079      0             -850.64716      4737.509     
   5790000   287.92226     -860.15079      0             -850.66049      4734.1512    
   5800000   322.41542     -860.15079      0             -849.52355      5020.6345    
   5810000   309.59974     -860.15079      0             -849.94597      4914.1938    
   5820000   304.11076     -860.15079      0             -850.12689      4868.605     
   5830000   335.78165     -860.15079      0             -849.08298      5131.6479    
   5840000   325.90535     -860.15079      0             -849.40851      5049.6202    
   5850000   281.15332     -860.15079      0             -850.8836       4677.9317    
   5860000   288.53796     -860.15079      0             -850.64019      4739.2649    
   5870000   307.11127     -860.15079      0             -850.02799      4893.5257    
   5880000   280.75344     -860.15079      0             -850.89678      4674.6106    
   5890000   313.57624     -860.15079      0             -849.8149       4947.2206    
   5900000   306.45703     -860.15079      0             -850.04956      4888.0919    
   5910000   280.75856     -860.15079      0             -850.89661      4674.653     
   5920000   283.28529     -860.15079      0             -850.81333      4695.6388    
   5930000   299.02227     -860.15079      0             -850.29462      4826.3425    
   5940000   275.98809     -860.15079      0             -851.05385      4635.0318    
   5950000   274.35681     -860.15079      0             -851.10762      4621.4832    
   5960000   291.96543     -860.15079      0             -850.52722      4767.7318    
   5970000   282.58787     -860.15079      0             -850.83632      4689.8464    
   5980000   283.19334     -860.15079      0             -850.81636      4694.8752    
   5990000   278.15952     -860.15079      0             -850.98228      4653.0667    
   6000000   298.64502     -860.15079      0             -850.30705      4823.2092    
   6010000   308.53751     -860.15079      0             -849.98098      4905.3714    
   6020000   311.2268      -860.15079      0             -849.89234      4927.7073    
   6030000   310.83804     -860.15079      0             -849.90515      4924.4785    
   6040000   282.26148     -860.15079      0             -850.84707      4687.1356    
   6050000   305.78953     -860.15079      0             -850.07156      4882.548     
   6060000   290.92324     -860.15079      0             -850.56157      4759.0759    
   6070000   291.9425      -860.15079      0             -850.52797      4767.5413    
   6080000   283.22301     -860.15079      0             -850.81538      4695.1215    
   6090000   296.44811     -860.15079      0             -850.37946      4804.9627    
   6100000   288.77586     -860.15079      0             -850.63235      4741.2408    
   6110000   312.94746     -860.15079      0             -849.83562      4941.9983    
   6120000   316.14126     -860.15079      0             -849.73035      4968.5244    
   6130000   290.21138     -860.15079      0             -850.58503      4753.1636    
   6140000   308.98741     -860.15079      0             -849.96615      4909.1081    
   6150000   281.1228      -860.15079      0             -850.88461      4677.6782    
   6160000   296.16756     -860.15079      0             -850.38871      4802.6326    
   6170000   304.09916     -860.15079      0             -850.12727      4868.5087    
   6180000   293.48423     -860.15079      0             -850.47716      4780.3462    
   6190000   295.31396     -860.15079      0             -850.41685      4795.5431    
   6200000   294.83475     -860.15079      0             -850.43264      4791.563     
   6210000   280.67568     -860.15079      0             -850.89934      4673.9647    
   6220000   299.93782     -860.15079      0             -850.26444      4833.9465    
   6230000   318.19297     -860.15079      0             -849.66272      4985.5649    
   6240000   299.64502     -860.15079      0             -850.27409      4831.5147    
   6250000   288.81367     -860.15079      0             -850.6311       4741.5548    
   6260000   304.0369      -860.15079      0             -850.12933      4867.9915    
   6270000   305.00603     -860.15079      0             -850.09738      4876.0406    
   6280000   291.70205     -860.15079      0             -850.5359       4765.5443    
   6290000   311.64372     -860.15079      0             -849.8786       4931.17      
   6300000   298.82555     -860.15079      0             -850.3011       4824.7086    
   6310000   281.43797     -860.15079      0             -850.87422      4680.2959    
   6320000   322.36349     -860.15079      0             -849.52526      5020.2032    
   6330000   286.93048     -860.15079      0             -850.69318      4725.914     
   6340000   314.58654     -860.15079      0             -849.7816       4955.6117    
   6350000   283.00651     -860.15079      0             -850.82252      4693.3234    
   6360000   317.90909     -860.15079      0             -849.67208      4983.2071    
   6370000   287.65058     -860.15079      0             -850.66944      4731.8948    
   6380000   294.51134     -860.15079      0             -850.4433       4788.8769    
   6390000   308.08284     -860.15079      0             -849.99597      4901.5951    
   6400000   276.01147     -860.15079      0             -851.05308      4635.2261    
   6410000   289.31551     -860.15079      0             -850.61456      4745.7229    
   6420000   303.57283     -860.15079      0             -850.14462      4864.1372    
   6430000   322.33727     -860.15079      0             -849.52612      5019.9855    
   6440000   319.89213     -860.15079      0             -849.60672      4999.6773    
   6450000   299.31724     -860.15079      0             -850.28489      4828.7924    
   6460000   290.85695     -860.15079      0             -850.56376      4758.5253    
   6470000   304.03257     -860.15079      0             -850.12947      4867.9556    
   6480000   289.66026     -860.15079      0             -850.6032       4748.5862    
   6490000   308.65684     -860.15079      0             -849.97705      4906.3625    
   6500000   306.23059     -860.15079      0             -850.05702      4886.2112    
   6510000   317.98718     -860.15079      0             -849.66951      4983.8557    
   6520000   297.35465     -860.15079      0             -850.34958      4812.492     
   6530000   294.2482      -860.15079      0             -850.45198      4786.6914    
   6540000   282.14529     -860.15079      0             -850.8509       4686.1706    
   6550000   293.71492     -860.15079      0             -850.46955      4782.2622    
   6560000   316.48535     -860.15079      0             -849.71901      4971.3823    
   6570000   305.86621     -860.15079      0             -850.06903      4883.1849    
   6580000   280.37515     -860.15079      0             -850.90925      4671.4687    
   6590000   276.71819     -860.15079      0             -851.02979      4641.0957    
   6600000   301.12553     -860.15079      0             -850.22529      4843.8112    
   6610000   291.66261     -860.15079      0             -850.5372       4765.2167    
   6620000   306.07403     -860.15079      0             -850.06218      4884.9109    
   6630000   287.22231     -860.15079      0             -850.68356      4728.3378    
   6640000   298.40386     -860.15079      0             -850.315        4821.2062    
   6650000   289.40572     -860.15079      0             -850.61159      4746.4721    
   6660000   314.92532     -860.15079      0             -849.77043      4958.4254    
   6670000   318.40903     -860.15079      0             -849.6556       4987.3594    
   6680000   321.68941     -860.15079      0             -849.54748      5014.6046    
   6690000   295.76741     -860.15079      0             -850.4019       4799.3092    
   6700000   297.15864     -860.15079      0             -850.35604      4810.864     
   6710000   311.27589     -860.15079      0             -849.89072      4928.115     
   6720000   291.66503     -860.15079      0             -850.53712      4765.2368    
   6730000   312.69967     -860.15079      0             -849.84379      4939.9402    
   6740000   299.16245     -860.15079      0             -850.29         4827.5067    
   6750000   308.85562     -860.15079      0             -849.9705       4908.0135    
   6760000   307.02979     -860.15079      0             -850.03068      4892.849     
   6770000   287.74068     -860.15079      0             -850.66647      4732.6431    
   6780000   316.02877     -860.15079      0             -849.73406      4967.5902    
   6790000   314.36469     -860.15079      0             -849.78891      4953.7691    
   6800000   318.06645     -860.15079      0             -849.66689      4984.5141    
   6810000   288.37916     -860.15079      0             -850.64543      4737.946     
   6820000   296.49353     -860.15079      0             -850.37797      4805.34      
   6830000   313.52197     -860.15079      0             -849.81669      4946.7698    
   6840000   286.24843     -860.15079      0             -850.71566      4720.2492    
   6850000   290.45996     -860.15079      0             -850.57684      4755.2281    
   6860000   300.14043     -860.15079      0             -850.25776      4835.6294    
   6870000   297.05013     -860.15079      0             -850.35962      4809.9628    
   6880000   276.90817     -860.15079      0             -851.02353      4642.6736    
   6890000   317.32288     -860.15079      0             -849.6914       4978.3384    
   6900000   316.30771     -860.15079      0             -849.72486      4969.9068    
   6910000   284.74362     -860.15079      0             -850.76526      4707.751     
   6920000   303.1041      -860.15079      0             -850.16007      4860.2441    
   6930000   291.61353     -860.15079      0             -850.53882      4764.8091    
   6940000   322.60766     -860.15079      0             -849.51721      5022.2312    
   6950000   318.39974     -860.15079      0             -849.65591      4987.2823    
   6960000   302.43261     -860.15079      0             -850.18221      4854.6671    
   6970000   300.44475     -860.15079      0             -850.24773      4838.1569    
   6980000   303.02023     -860.15079      0             -850.16284      4859.5476    
   6990000   272.69606     -860.15079      0             -851.16236      4607.6899    
   7000000   286.98277     -860.15079      0             -850.69145      4726.3483    
   7010000   286.2863      -860.15079      0             -850.71441      4720.5638    
   7020000   301.84168     -860.15079      0             -850.20168      4849.7591    
   7030000   327.90651     -860.15079      0             -849.34255      5066.2408    
   7040000   276.01635     -860.15079      0             -851.05292      4635.2666    
   7050000   333.74759     -860.15079      0             -849.15002      5114.754     
   7060000   296.04222     -860.15079      0             -850.39284      4801.5916    
   7070000   308.26082     -860.15079      0             -849.9901       4903.0734    
   7080000   304.75061     -860.15079      0             -850.1058       4873.9192    
   7090000   278.65132     -860.15079      0             -850.96607      4657.1514    
   7100000   302.244       -860.15079      0             -850.18842      4853.1006    
   7110000   285.95029     -860.15079      0             -850.72549      4717.773     
   7120000   289.78749     -860.15079      0             -850.59901      4749.643     
   7130000   308.1194      -860.15079      0             -849.99476      4901.8987    
   7140000   278.33775     -860.15079      0             -850.9764       4654.547     
   7150000   312.16336     -860.15079      0             -849.86147      4935.4859    
   7160000   291.9868      -860.15079      0             -850.52651      4767.9093    
   7170000   312.54798     -860.15079      0             -849.84879      4938.6804    
   7180000   308.50672     -860.15079      0             -849.982        4905.1157    
   7190000   293.28217     -860.15079      0             -850.48382      4778.668     
   7200000   312.50794     -860.15079      0             -849.85011      4938.3479    
   7210000   315.79238     -860.15079      0             -849.74185      4965.6268    
   7220000   333.27699     -860.15079      0             -849.16553      5110.8454    
   7230000   296.88518     -860.15079      0             -850.36506      4808.5928    
   7240000   296.25276     -860.15079      0             -850.3859       4803.3403    
   7250000   286.14134     -860.15079      0             -850.71919      4719.3598    
   7260000   340.47543     -860.15079      0             -848.92826      5170.6321    
   7270000   294.39163     -860.15079      0             -850.44725      4787.8826    
   7280000   291.41647     -860.15079      0             -850.54531      4763.1724    
   7290000   278.89464     -860.15079      0             -850.95805      4659.1722    
   7300000   314.18078     -860.15079      0             -849.79497      4952.2416    
   7310000   281.96995     -860.15079      0             -850.85668      4684.7142    
   7320000   328.22199     -860.15079      0             -849.33215      5068.8611    
   7330000   289.94303     -860.15079      0             -850.59388      4750.9347    
   7340000   304.80575     -860.15079      0             -850.10398      4874.3772    
   7350000   292.64118     -860.15079      0             -850.50494      4773.3443    
   7360000   293.14601     -860.15079      0             -850.48831      4777.5371    
   7370000   310.02356     -860.15079      0             -849.932        4917.7138    
   7380000   319.99989     -860.15079      0             -849.60317      5000.5723    
   7390000   252.6239      -860.15079      0             -851.82397      4440.9803    
   7400000   284.21626     -860.15079      0             -850.78264      4703.371     
   7410000   286.80246     -860.15079      0             -850.6974       4724.8507    
   7420000   290.14932     -860.15079      0             -850.58708      4752.6481    
   7430000   282.12078     -860.15079      0             -850.85171      4685.967     
   7440000   308.94659     -860.15079      0             -849.9675       4908.769     
   7450000   318.83591     -860.15079      0             -849.64153      4990.9048    
   7460000   288.88521     -860.15079      0             -850.62875      4742.1491    
   7470000   291.61136     -860.15079      0             -850.53889      4764.7911    
   7480000   317.54859     -860.15079      0             -849.68396      4980.213     
   7490000   289.81792     -860.15079      0             -850.598        4749.8957    
   7500000   312.50291     -860.15079      0             -849.85028      4938.3061    
   7510000   294.28386     -860.15079      0             -850.4508       4786.9876    
   7520000   302.47818     -860.15079      0             -850.1807       4855.0455    
   7530000   300.22879     -860.15079      0             -850.25485      4836.3633    
   7540000   312.79182     -860.15079      0             -849.84075      4940.7056    
   7550000   272.34524     -860.15079      0             -851.17393      4604.7761    
   7560000   302.67176     -860.15079      0             -850.17432      4856.6533    
   7570000   285.57479     -860.15079      0             -850.73786      4714.6543    
   7580000   277.00826     -860.15079      0             -851.02023      4643.5049    
   7590000   309.4446      -860.15079      0             -849.95108      4912.9052    
   7600000   286.62788     -860.15079      0             -850.70315      4723.4007    
   7610000   327.87599     -860.15079      0             -849.34356      5065.9873    
   7620000   307.2138      -860.15079      0             -850.02461      4894.3773    
   7630000   323.06262     -860.15079      0             -849.50221      5026.0099    
   7640000   319.04933     -860.15079      0             -849.6345       4992.6774    
   7650000   317.20431     -860.15079      0             -849.69531      4977.3536    
   7660000   324.95325     -860.15079      0             -849.4399       5041.7125    
   7670000   292.54935     -860.15079      0             -850.50797      4772.5816    
   7680000   317.95574     -860.15079      0             -849.67054      4983.5946    
   7690000   314.87644     -860.15079      0             -849.77204      4958.0195    
   7700000   292.40146     -860.15079      0             -850.51285      4771.3532    
   7710000   292.37273     -860.15079      0             -850.51379      4771.1146    
   7720000   286.38471     -860.15079      0             -850.71117      4721.3811    
   7730000   296.3061      -860.15079      0             -850.38414      4803.7833    
   7740000   315.18044     -860.15079      0             -849.76202      4960.5443    
   7750000   302.77747     -860.15079      0             -850.17084      4857.5313    
   7760000   301.50656     -860.15079      0             -850.21273      4846.9758    
   7770000   314.36622     -860.15079      0             -849.78886      4953.7818    
   7780000   298.60788     -860.15079      0             -850.30827      4822.9007    
   7790000   303.94066     -860.15079      0             -850.1325       4867.1922    
   7800000   296.82744     -860.15079      0             -850.36696      4808.1133    
   7810000   336.76307     -860.15079      0             -849.05063      5139.7991    
   7820000   303.28841     -860.15079      0             -850.154        4861.7749    
   7830000   285.06569     -860.15079      0             -850.75464      4710.4259    
   7840000   312.51456     -860.15079      0             -849.84989      4938.4029    
   7850000   284.07116     -860.15079      0             -850.78742      4702.1659    
   7860000   291.62263     -860.15079      0             -850.53852      4764.8847    
   7870000   298.68895     -860.15079      0             -850.3056       4823.5741    
   7880000   305.48654     -860.15079      0             -850.08154      4880.0315    
   7890000   298.94285     -860.15079      0             -850.29723      4825.6828    
   7900000   308.40758     -860.15079      0             -849.98526      4904.2922    
   7910000   288.1154      -860.15079      0             -850.65412      4735.7553    
   7920000   294.69339     -860.15079      0             -850.4373       4790.3889    
   7930000   303.5357      -860.15079      0             -850.14585      4863.8288    
   7940000   305.93287     -860.15079      0             -850.06683      4883.7385    
   7950000   309.24699     -860.15079      0             -849.9576       4911.2639    
   7960000   296.93141     -860.15079      0             -850.36353      4808.9768    
   7970000   293.67393     -860.15079      0             -850.4709       4781.9217    
   7980000   284.92573     -860.15079      0             -850.75926      4709.2635    
   7990000   292.56045     -860.15079      0             -850.50761      4772.6737    
   8000000   288.86172     -860.15079      0             -850.62952      4741.954     
   8010000   298.57903     -860.15079      0             -850.30923      4822.6612    
   8020000   324.23375     -860.15079      0             -849.46361      5035.7366    
   8030000   309.02397     -860.15079      0             -849.96495      4909.4117    
   8040000   294.72585     -860.15079      0             -850.43623      4790.6586    
   8050000   308.06542     -860.15079      0             -849.99654      4901.4505    
   8060000   302.13306     -860.15079      0             -850.19208      4852.1791    
   8070000   301.84764     -860.15079      0             -850.20149      4849.8086    
   8080000   295.05131     -860.15079      0             -850.4255       4793.3616    
   8090000   296.86157     -860.15079      0             -850.36584      4808.3968    
   8100000   303.36382     -860.15079      0             -850.15151      4862.4013    
   8110000   309.59906     -860.15079      0             -849.94599      4914.1881    
   8120000   304.82876     -860.15079      0             -850.10323      4874.5683    
   8130000   298.27298     -860.15079      0             -850.31931      4820.1192    
   8140000   267.02742     -860.15079      0             -851.34921      4560.6089    
   8150000   287.80152     -860.15079      0             -850.66447      4733.1484    
   8160000   326.76433     -860.15079      0             -849.3802       5056.7544    
   8170000   300.35111     -860.15079      0             -850.25082      4837.3791    
   8180000   304.17824     -860.15079      0             -850.12467      4869.1654    
   8190000   310.37136     -860.15079      0             -849.92053      4920.6024    
   8200000   314.43317     -860.15079      0             -849.78665      4954.3379    
   8210000   298.0825      -860.15079      0             -850.32559      4818.5372    
   8220000   306.21663     -860.15079      0             -850.05748      4886.0953    
   8230000   301.62915     -860.15079      0             -850.20869      4847.994     
   8240000   300.54698     -860.15079      0             -850.24436      4839.0059    
   8250000   275.97642     -860.15079      0             -851.05424      4634.9349    
   8260000   274.26042     -860.15079      0             -851.1108       4620.6827    
   8270000   306.54386     -860.15079      0             -850.04669      4888.8131    
   8280000   287.89777     -860.15079      0             -850.66129      4733.9478    
   8290000   301.92894     -860.15079      0             -850.19881      4850.4838    
   8300000   302.1232      -860.15079      0             -850.1924       4852.0973    
   8310000   320.22075     -860.15079      0             -849.59589      5002.4066    
   8320000   320.36176     -860.15079      0             -849.59124      5003.5778    
   8330000   308.12993     -860.15079      0             -849.99442      4901.9862    
   8340000   304.54988     -860.15079      0             -850.11242      4872.2521    
   8350000   287.76406     -860.15079      0             -850.6657       4732.8373    
   8360000   296.21924     -860.15079      0             -850.38701      4803.0619    
   8370000   303.74914     -860.15079      0             -850.13881      4865.6015    
   8380000   301.44109     -860.15079      0             -850.21489      4846.432     
   8390000   307.38503     -860.15079      0             -850.01897      4895.7995    
   8400000   292.50094     -860.15079      0             -850.50957      4772.1795    
   8410000   272.3697      -860.15079      0             -851.17312      4604.9793    
   8420000   300.48847     -860.15079      0             -850.24629      4838.52      
   8430000   286.25943     -860.15079      0             -850.7153       4720.3405    
   8440000   307.69073     -860.15079      0             -850.00889      4898.3385    
   8450000   308.68233     -860.15079      0             -849.97621      4906.5742    
   8460000   308.40824     -860.15079      0             -849.98524      4904.2978    
   8470000   303.7763      -860.15079      0             -850.13792      4865.8271    
   8480000   286.42703     -860.15079      0             -850.70977      4721.7326    
   8490000   274.97113     -860.15079      0             -851.08737      4626.5855    
   8500000   286.71956     -860.15079      0             -850.70013      4724.1622    
   8510000   311.92712     -860.15079      0             -849.86925      4933.5238    
   8520000   305.6091      -860.15079      0             -850.07751      4881.0494    
   8530000   288.91114     -860.15079      0             -850.62789      4742.3644    
   8540000   308.87397     -860.15079      0             -849.96989      4908.1659    
   8550000   267.21596     -860.15079      0             -851.34299      4562.1749    
   8560000   287.71417     -860.15079      0             -850.66735      4732.423     
   8570000   297.33349     -860.15079      0             -850.35028      4812.3163    
   8580000   300.44849     -860.15079      0             -850.24761      4838.188     
   8590000   305.57751     -860.15079      0             -850.07855      4880.7871    
   8600000   298.18109     -860.15079      0             -850.32234      4819.356     
   8610000   314.53871     -860.15079      0             -849.78317      4955.2144    
   8620000   293.23571     -860.15079      0             -850.48535      4778.2822    
   8630000   313.10902     -860.15079      0             -849.8303       4943.3401    
   8640000   323.85272     -860.15079      0             -849.47617      5032.572     
   8650000   278.45898     -860.15079      0             -850.97241      4655.5539    
   8660000   321.44625     -860.15079      0             -849.55549      5012.585     
   8670000   286.85145     -860.15079      0             -850.69578      4725.2576    
   8680000   308.22895     -860.15079      0             -849.99115      4902.8086    
   8690000   303.43484     -860.15079      0             -850.14917      4862.9911    
   8700000   304.26946     -860.15079      0             -850.12166      4869.923     
   8710000   322.63273     -860.15079      0             -849.51638      5022.4394    
   8720000   289.42702     -860.15079      0             -850.61089      4746.649     
   8730000   306.50153     -860.15079      0             -850.04809      4888.4616    
   8740000   288.71482     -860.15079      0             -850.63436      4740.7339    
   8750000   322.29254     -860.15079      0             -849.5276       5019.6139    
   8760000   281.30208     -860.15079      0             -850.8787       4679.1673    
   8770000   321.02694     -860.15079      0             -849.56931      5009.1024    
   8780000   304.62464     -860.15079      0             -850.10995      4872.873     
   8790000   290.21918     -860.15079      0             -850.58478      4753.2283    
   8800000   309.73204     -860.15079      0             -849.94161      4915.2925    
   8810000   307.55349     -860.15079      0             -850.01342      4897.1986    
   8820000   296.1023      -860.15079      0             -850.39086      4802.0906    
   8830000   281.94303     -860.15079      0             -850.85757      4684.4907    
   8840000   309.96394     -860.15079      0             -849.93396      4917.2186    
   8850000   306.47205     -860.15079      0             -850.04906      4888.2167    
   8860000   317.58038     -860.15079      0             -849.68292      4980.4771    
   8870000   305.5298      -860.15079      0             -850.08012      4880.3908    
   8880000   311.06657     -860.15079      0             -849.89762      4926.3765    
   8890000   306.3513      -860.15079      0             -850.05304      4887.2138    
   8900000   315.63063     -860.15079      0             -849.74718      4964.2834    
   8910000   306.22655     -860.15079      0             -850.05715      4886.1777    
   8920000   313.59224     -860.15079      0             -849.81437      4947.3535    
   8930000   287.01302     -860.15079      0             -850.69046      4726.5995    
   8940000   302.98844     -860.15079      0             -850.16389      4859.2836    
   8950000   310.83825     -860.15079      0             -849.90515      4924.4802    
[...]
 208900000   294.69291     -860.15079      0             -850.43732      4790.3849    
 208910000   290.86414     -860.15079      0             -850.56352      4758.5851    
 208920000   303.38146     -860.15079      0             -850.15093      4862.5477    
 208930000   303.29        -860.15079      0             -850.15395      4861.7882    
 208940000   283.20486     -860.15079      0             -850.81598      4694.9708    
 208950000   294.6839      -860.15079      0             -850.43761      4790.3101    
 208960000   305.71035     -860.15079      0             -850.07417      4881.8904    
 208970000   300.52279     -860.15079      0             -850.24516      4838.8051    
 208980000   297.24607     -860.15079      0             -850.35316      4811.5902    
 208990000   305.03265     -860.15079      0             -850.09651      4876.2618    
 209000000   318.56975     -860.15079      0             -849.6503       4988.6943    
 209010000   319.15205     -860.15079      0             -849.63111      4993.5306    
 209020000   308.9837      -860.15079      0             -849.96627      4909.0772    
 209030000   307.40343     -860.15079      0             -850.01836      4895.9523    
 209040000   283.8213      -860.15079      0             -850.79566      4700.0906    
 209050000   307.02784     -860.15079      0             -850.03074      4892.8328    
 209060000   330.21068     -860.15079      0             -849.2666       5085.3781    
 209070000   301.5507      -860.15079      0             -850.21128      4847.3423    
 209080000   278.05062     -860.15079      0             -850.98587      4652.1622    
 209090000   308.8256      -860.15079      0             -849.97148      4907.7641    
 209100000   301.70834     -860.15079      0             -850.20608      4848.6517    
 209110000   289.1989      -860.15079      0             -850.61841      4744.7544    
 209120000   271.36407     -860.15079      0             -851.20627      4596.627     
 209130000   301.65919     -860.15079      0             -850.2077       4848.2434    
 209140000   308.28698     -860.15079      0             -849.98924      4903.2906    
 209150000   291.67452     -860.15079      0             -850.53681      4765.3157    
 209160000   288.75325     -860.15079      0             -850.6331       4741.053     
 209170000   302.95554     -860.15079      0             -850.16497      4859.0103    
 209180000   283.23632     -860.15079      0             -850.81494      4695.2321    
 209190000   286.0846      -860.15079      0             -850.72106      4718.8885    
 209200000   293.69602     -860.15079      0             -850.47018      4782.1052    
 209210000   294.0886      -860.15079      0             -850.45724      4785.3658    
 209220000   308.55495     -860.15079      0             -849.98041      4905.5163    
 209230000   286.5049      -860.15079      0             -850.70721      4722.3793    
 209240000   292.70829     -860.15079      0             -850.50273      4773.9016    
 209250000   285.73748     -860.15079      0             -850.7325       4716.0055    
 209260000   289.38872     -860.15079      0             -850.61215      4746.331     
 209270000   285.20991     -860.15079      0             -850.74989      4711.6238    
 209280000   310.93355     -860.15079      0             -849.902        4925.2718    
 209290000   267.95948     -860.15079      0             -851.31849      4568.3501    
 209300000   288.95206     -860.15079      0             -850.62654      4742.7042    
 209310000   301.8998      -860.15079      0             -850.19977      4850.2418    
 209320000   293.69802     -860.15079      0             -850.47011      4782.1219    
 209330000   299.43852     -860.15079      0             -850.2809       4829.7996    
 209340000   309.9038      -860.15079      0             -849.93595      4916.7192    
 209350000   291.62503     -860.15079      0             -850.53844      4764.9047    
 209360000   308.82806     -860.15079      0             -849.9714       4907.7845    
 209370000   285.70107     -860.15079      0             -850.7337       4715.7031    
 209380000   301.24764     -860.15079      0             -850.22126      4844.8253    
 209390000   275.61859     -860.15079      0             -851.06603      4631.963     
 209400000   301.07844     -860.15079      0             -850.22684      4843.42      
 209410000   292.55189     -860.15079      0             -850.50789      4772.6027    
 209420000   281.93671     -860.15079      0             -850.85778      4684.4382    
 209430000   302.53398     -860.15079      0             -850.17887      4855.509     
 209440000   305.73313     -860.15079      0             -850.07342      4882.0796    
 209450000   296.41036     -860.15079      0             -850.38071      4804.6493    
 209460000   309.87212     -860.15079      0             -849.93699      4916.456     
 209470000   314.56142     -860.15079      0             -849.78242      4955.403     
 209480000   305.05212     -860.15079      0             -850.09586      4876.4234    
 209490000   302.00698     -860.15079      0             -850.19624      4851.132     
 209500000   311.88063     -860.15079      0             -849.87079      4933.1377    
 209510000   283.65814     -860.15079      0             -850.80104      4698.7356    
 209520000   321.7621      -860.15079      0             -849.54508      5015.2083    
 209530000   326.19959     -860.15079      0             -849.39882      5052.0639    
 209540000   314.32835     -860.15079      0             -849.79011      4953.4673    
 209550000   288.29025     -860.15079      0             -850.64836      4737.2076    
 209560000   282.40455     -860.15079      0             -850.84236      4688.3239    
 209570000   290.54683     -860.15079      0             -850.57398      4755.9496    
 209580000   323.78577     -860.15079      0             -849.47838      5032.0159    
 209590000   294.96878     -860.15079      0             -850.42822      4792.6762    
 209600000   292.46657     -860.15079      0             -850.5107       4771.894     
 209610000   303.75843     -860.15079      0             -850.13851      4865.6787    
 209620000   313.05454     -860.15079      0             -849.83209      4942.8876    
 209630000   302.808       -860.15079      0             -850.16983      4857.7849    
 209640000   322.79489     -860.15079      0             -849.51104      5023.7862    
 209650000   313.51153     -860.15079      0             -849.81703      4946.6831    
 209660000   300.27132     -860.15079      0             -850.25345      4836.7164    
 209670000   297.69733     -860.15079      0             -850.33829      4815.3382    
 209680000   291.53993     -860.15079      0             -850.54124      4764.1978    
 209690000   293.1699      -860.15079      0             -850.48752      4777.7356    
 209700000   281.31302     -860.15079      0             -850.87834      4679.2581    
 209710000   308.45837     -860.15079      0             -849.98359      4904.7141    
 209720000   311.91917     -860.15079      0             -849.86952      4933.4578    
 209730000   296.6532      -860.15079      0             -850.3727       4806.6661    
 209740000   285.00024     -860.15079      0             -850.7568       4709.8824    
 209750000   289.19361     -860.15079      0             -850.61858      4744.7105    
 209760000   301.87728     -860.15079      0             -850.20051      4850.0548    
 209770000   302.74792     -860.15079      0             -850.17181      4857.2859    
 209780000   321.20238     -860.15079      0             -849.56353      5010.5596    
 209790000   292.83759     -860.15079      0             -850.49847      4774.9755    
 209800000   289.65834     -860.15079      0             -850.60326      4748.5703    
 209810000   288.115       -860.15079      0             -850.65413      4735.752     
 209820000   300.34922     -860.15079      0             -850.25088      4837.3635    
 209830000   306.67033     -860.15079      0             -850.04253      4889.8635    
 209840000   292.09884     -860.15079      0             -850.52282      4768.8399    
 209850000   273.63047     -860.15079      0             -851.13156      4615.4506    
 209860000   305.77351     -860.15079      0             -850.07209      4882.415     
 209870000   306.25377     -860.15079      0             -850.05626      4886.4038    
 209880000   304.15116     -860.15079      0             -850.12556      4868.9405    
 209890000   312.66556     -860.15079      0             -849.84491      4939.6569    
 209900000   308.73399     -860.15079      0             -849.9745       4907.0032    
 209910000   289.04686     -860.15079      0             -850.62342      4743.4916    
 209920000   311.95884     -860.15079      0             -849.86821      4933.7872    
 209930000   309.87046     -860.15079      0             -849.93704      4916.4422    
 209940000   289.36831     -860.15079      0             -850.61282      4746.1614    
 209950000   312.1489      -860.15079      0             -849.86194      4935.3658    
 209960000   256.8603      -860.15079      0             -851.68433      4476.1658    
 209970000   331.18258     -860.15079      0             -849.23457      5093.4502    
 209980000   320.25891     -860.15079      0             -849.59463      5002.7236    
 209990000   288.47412     -860.15079      0             -850.6423       4738.7347    
 210000000   296.73524     -860.15079      0             -850.37         4807.3475    
 210010000   312.93028     -860.15079      0             -849.83619      4941.8556    
 210020000   292.00656     -860.15079      0             -850.52586      4768.0734    
 210030000   291.42249     -860.15079      0             -850.54511      4763.2224    
 210040000   287.74979     -860.15079      0             -850.66617      4732.7188    
 210050000   312.55        -860.15079      0             -849.84872      4938.6971    
 210060000   292.01565     -860.15079      0             -850.52556      4768.1489    
 210070000   293.00961     -860.15079      0             -850.4928       4776.4043    
 210080000   289.07153     -860.15079      0             -850.62261      4743.6965    
 210090000   274.04135     -860.15079      0             -851.11802      4618.8632    
 210100000   297.99467     -860.15079      0             -850.32849      4817.8078    
 210110000   324.32965     -860.15079      0             -849.46045      5036.5332    
 210120000   282.34486     -860.15079      0             -850.84433      4687.8281    
 210130000   340.51061     -860.15079      0             -848.9271       5170.9243    
 210140000   294.27872     -860.15079      0             -850.45097      4786.9449    
 210150000   299.8597      -860.15079      0             -850.26701      4833.2978    
 210160000   300.63061     -860.15079      0             -850.2416       4839.7006    
 210170000   352.72409     -860.15079      0             -848.52453      5272.3634    
 210180000   310.41651     -860.15079      0             -849.91905      4920.9774    
 210190000   288.91945     -860.15079      0             -850.62762      4742.4334    
 210200000   281.77111     -860.15079      0             -850.86324      4683.0628    
 210210000   298.49205     -860.15079      0             -850.31209      4821.9387    
 210220000   292.94642     -860.15079      0             -850.49488      4775.8795    
 210230000   299.62742     -860.15079      0             -850.27467      4831.3685    
 210240000   316.15101     -860.15079      0             -849.73003      4968.6054    
 210250000   286.65746     -860.15079      0             -850.70218      4723.6464    
 210260000   298.35727     -860.15079      0             -850.31653      4820.8193    
 210270000   281.58385     -860.15079      0             -850.86941      4681.5075    
 210280000   323.09191     -860.15079      0             -849.50125      5026.2531    
 210290000   326.29726     -860.15079      0             -849.3956       5052.8752    
 210300000   287.48318     -860.15079      0             -850.67496      4730.5044    
 210310000   281.31991     -860.15079      0             -850.87811      4679.3154    
 210320000   299.92709     -860.15079      0             -850.26479      4833.8575    
 210330000   293.89349     -860.15079      0             -850.46367      4783.7453    
 210340000   288.89935     -860.15079      0             -850.62828      4742.2664    
 210350000   311.21564     -860.15079      0             -849.89271      4927.6146    
 210360000   281.41926     -860.15079      0             -850.87483      4680.1405    
 210370000   292.33009     -860.15079      0             -850.5152       4770.7605    
 210380000   256.36775     -860.15079      0             -851.70057      4472.0749    
 210390000   282.67878     -860.15079      0             -850.83332      4690.6014    
 210400000   295.61407     -860.15079      0             -850.40695      4798.0357    
 210410000   299.76633     -860.15079      0             -850.27009      4832.5222    
 210420000   322.63043     -860.15079      0             -849.51646      5022.4203    
 210430000   298.82923     -860.15079      0             -850.30098      4824.7392    
 210440000   278.16266     -860.15079      0             -850.98218      4653.0928    
 210450000   271.63857     -860.15079      0             -851.19722      4598.9069    
 210460000   307.70131     -860.15079      0             -850.00854      4898.4263    
 210470000   323.89048     -860.15079      0             -849.47493      5032.8857    
 210480000   286.98437     -860.15079      0             -850.6914       4726.3616    
 210490000   303.29281     -860.15079      0             -850.15385      4861.8115    
 210500000   301.80975     -860.15079      0             -850.20274      4849.4939    
 210510000   292.36449     -860.15079      0             -850.51406      4771.0462    
 210520000   312.29255     -860.15079      0             -849.85721      4936.559     
 210530000   281.2706      -860.15079      0             -850.87973      4678.9058    
 210540000   294.9213      -860.15079      0             -850.42979      4792.2819    
 210550000   289.83199     -860.15079      0             -850.59754      4750.0125    
 210560000   321.30706     -860.15079      0             -849.56008      5011.429     
 210570000   285.64889     -860.15079      0             -850.73542      4715.2697    
 210580000   302.44847     -860.15079      0             -850.18168      4854.7988    
 210590000   284.8244      -860.15079      0             -850.7626       4708.4219    
 210600000   293.88752     -860.15079      0             -850.46386      4783.6958    
 210610000   275.68328     -860.15079      0             -851.0639       4632.5002    
 210620000   303.45471     -860.15079      0             -850.14852      4863.1562    
 210630000   311.49336     -860.15079      0             -849.88355      4929.9212    
 210640000   309.50702     -860.15079      0             -849.94902      4913.4237    
 210650000   293.31285     -860.15079      0             -850.48281      4778.9228    
 210660000   309.01655     -860.15079      0             -849.96519      4909.35      
 210670000   306.94143     -860.15079      0             -850.03359      4892.1151    
 210680000   282.29049     -860.15079      0             -850.84612      4687.3765    
 210690000   291.12274     -860.15079      0             -850.55499      4760.7328    
 210700000   294.88258     -860.15079      0             -850.43107      4791.9602    
 210710000   285.99696     -860.15079      0             -850.72395      4718.1606    
 210720000   315.51602     -860.15079      0             -849.75096      4963.3315    
 210730000   278.92041     -860.15079      0             -850.9572       4659.3862    
 210740000   291.76489     -860.15079      0             -850.53383      4766.0662    
 210750000   314.28981     -860.15079      0             -849.79138      4953.1472    
 210760000   286.3563      -860.15079      0             -850.7121       4721.1451    
 210770000   292.54442     -860.15079      0             -850.50813      4772.5406    
 210780000   330.2687      -860.15079      0             -849.26469      5085.86      
 210790000   301.55845     -860.15079      0             -850.21102      4847.4067    
 210800000   315.785       -860.15079      0             -849.74209      4965.5655    
 210810000   302.51564     -860.15079      0             -850.17947      4855.3567    
 210820000   284.94242     -860.15079      0             -850.75871      4709.4021    
 210830000   270.08773     -860.15079      0             -851.24834      4586.0264    
 210840000   271.46532     -860.15079      0             -851.20293      4597.468     
 210850000   327.57189     -860.15079      0             -849.35358      5063.4617    
 210860000   303.37889     -860.15079      0             -850.15102      4862.5264    
 210870000   294.50163     -860.15079      0             -850.44362      4788.7963    
 210880000   298.80991     -860.15079      0             -850.30162      4824.5787    
 210890000   274.55784     -860.15079      0             -851.101        4623.1529    
 210900000   301.73112     -860.15079      0             -850.20533      4848.8408    
 210910000   311.5383      -860.15079      0             -849.88207      4930.2945    
 210920000   282.88717     -860.15079      0             -850.82645      4692.3323    
 210930000   299.25852     -860.15079      0             -850.28683      4828.3046    
 210940000   289.63657     -860.15079      0             -850.60398      4748.3894    
 210950000   330.54536     -860.15079      0             -849.25557      5088.1579    
 210960000   254.5244      -860.15079      0             -851.76132      4456.765     
 210970000   287.17566     -860.15079      0             -850.6851       4727.9503    
 210980000   296.71878     -860.15079      0             -850.37054      4807.2108    
 210990000   303.10623     -860.15079      0             -850.16         4860.2619    
 211000000   290.83315     -860.15079      0             -850.56454      4758.3276    
 211010000   332.08996     -860.15079      0             -849.20466      5100.9865    
 211020000   316.69034     -860.15079      0             -849.71225      4973.0848    
 211030000   319.61459     -860.15079      0             -849.61587      4997.3722    
 211040000   283.84599     -860.15079      0             -850.79485      4700.2957    
 211050000   293.74675     -860.15079      0             -850.4685       4782.5266    
 211060000   276.3229      -860.15079      0             -851.04282      4637.8126    
 211070000   308.98965     -860.15079      0             -849.96608      4909.1266    
 211080000   297.32294     -860.15079      0             -850.35063      4812.2286    
 211090000   296.9127      -860.15079      0             -850.36415      4808.8215    
 211100000   290.18545     -860.15079      0             -850.58589      4752.9481    
 211110000   295.87318     -860.15079      0             -850.39841      4800.1877    
 211120000   277.87001     -860.15079      0             -850.99182      4650.6622    
 211130000   305.67563     -860.15079      0             -850.07531      4881.602     
 211140000   307.95557     -860.15079      0             -850.00016      4900.5381    
 211150000   277.91727     -860.15079      0             -850.99026      4651.0547    
 211160000   283.19031     -860.15079      0             -850.81646      4694.85      
 211170000   319.72896     -860.15079      0             -849.6121       4998.3221    
 211180000   290.0094      -860.15079      0             -850.59169      4751.486     
 211190000   300.18824     -860.15079      0             -850