LAMMPS (23 Jun 2022)
OMP_NUM_THREADS environment is not set. Defaulting to 1 thread. (src/comm.cpp:98)
  using 1 OpenMP thread(s) per MPI task
# 3d indenter simulation
boundary	s s s
units metal
read_restart restart_100A.212
Reading restart file ...
  restart file = 23 Jun 2022, LAMMPS = 23 Jun 2022
  restoring atom style atomic from restart
  orthogonal box = (30.598927 31.523398 81.447296) to (129.28672 128.45246 128.37257)
  2 by 2 by 1 MPI processor grid
  pair style eam/alloy stores no restart info
  15673 atoms
  read_restart CPU = 0.006 seconds

# create geometry
# make (111) the base plane
#lattice 	fcc 4.04 orient z 1 1 1 orient x 1 1 -2 orient y -2 2 0 origin 0 0 0
# define simulation domain
#region		domain block 0 80.4 0 80.4 0 80.4 units box
# define substrate
#region		substrate block 0 80.4 0 80.4 0 40.2 units box
# set simulation domain
#create_box	1 domain
# define region to be populated by quantum dot
#region		dot sphere 40.2 40.2 40.2 35.2 units box
# create atoms in dot region
#create_atoms	1 region dot
# delete atoms in the substrate region
#delete_atoms	region substrate


# set nano-dot fixed atom region
region	        base block INF INF INF INF INF 84.0 units box

# EAM potentials
pair_style	eam/alloy
pair_coeff	* * Al.eam Al

# define groups
group		fixedatoms region base
1891 atoms in group fixedatoms

# set force on fixed atoms to zero
fix		3 fixedatoms setforce 0.0 0.0 0.0

# Run with minimizer and set up output
compute		CSP all centro/atom fcc
compute eng all pe/atom
thermo		0
thermo_style	custom step f_3[3] pe
thermo_modify norm no
dump	 0dumpCSP all custom 20000 indent_100A.csp type x y z c_CSP c_eng








# ---------- initial velocities ---------------------------
#compute new inner temp
#velocity inner create 10.00 4882748 temp new #fix 10 all nve
#fix 4 all nvt temp 10.0 10.0 0.01 drag 1.0
#fix 4 all temp/rescale 5 0.01 0.01 0.005 0.05

### relaxaction

#timestep 0.001
#thermo 100
#thermo_modify temp new
#thermo_style custom step temp

#run 50000


### indentation



variable z equal "162.5-0.1*step*dt"
fix 5 all indent 100.0 sphere 50.7 40.0 v_z 60 units box


# ---------- Run with indenter ------------------------------------------
#timestep 0.001
#thermo 10
#thermo_modify temp new thermo_style custom step temp f_5[3]
#run 3000000








# Begin indentation:
# NOTE: 'fix_modify 2 energy yes' must be used to account for the energy added to system due to
# the indenter. If 'no' then there will be no force or potential energy output from 'thermo' cmd

#INDENT DISTANCE, 0.00
fix 	2 all indent 10.0 sphere 80.00 80.00 228.00 100.0 units box
fix_modify	2 energy yes
minimize	2.3e-16 1.0e-3 200000 200000
WARNING: Using 'neigh_modify every 1 delay 0 check yes' setting during minimization (src/min.cpp:187)
Neighbor list info ...
  update every 1 steps, delay 0 steps, check yes
  max neighbors/atom: 2000, page size: 100000
  master list distance cutoff = 8.28721
  ghost atom cutoff = 8.28721
  binsize = 4.143605, bins = 24 24 12
  2 neighbor lists, perpetual/occasional/extra = 1 1 0
  (1) pair eam/alloy, perpetual
      attributes: half, newton on
      pair build: half/bin/atomonly/newton
      stencil: half/bin/3d
      bin: standard
  (2) compute centro/atom, occasional
      attributes: full, newton on
      pair build: full/bin/atomonly
      stencil: full/bin/3d
      bin: standard
Per MPI rank memory allocation (min/avg/max) = 6.131 | 6.134 | 6.138 Mbytes
   Step         f_3[3]         PotEng    
       212   1.0106146e-05 -51230.798    
       213   1.0106146e-05 -51230.798    
Loop time of 0.211497 on 4 procs for 1 steps with 15673 atoms

99.3% CPU use with 4 MPI tasks x 1 OpenMP threads

Minimization stats:
  Stopping criterion = linesearch alpha is zero
  Energy initial, next-to-last, final = 
     -51230.7976370931  -51230.7976370931  -51230.7976370931
  Force two-norm initial, final = 149469.79 149472.52
  Force max component initial, final = 14931.356 14931.548
  Final line search alpha, max atom move = 3.806983e-19 5.6844151e-15
  Iterations, force evaluations = 1 45

MPI task timing breakdown:
Section |  min time  |  avg time  |  max time  |%varavg| %total
---------------------------------------------------------------
Pair    | 0.17536    | 0.17971    | 0.18435    |   0.8 | 84.97
Neigh   | 0          | 0          | 0          |   0.0 |  0.00
Comm    | 0.0026798  | 0.0073107  | 0.011628   |   4.0 |  3.46
Output  | 0          | 0          | 0          |   0.0 |  0.00
Modify  | 0.0016572  | 0.0017573  | 0.0018658  |   0.2 |  0.83
Other   |            | 0.02272    |            |       | 10.74

Nlocal:        3918.25 ave        3986 max        3841 min
Histogram: 1 0 0 0 1 0 1 0 0 1
Nghost:        2113.75 ave        2177 max        2060 min
Histogram: 1 0 0 1 1 0 0 0 0 1
Neighs:         237020 ave      244220 max      229609 min
Histogram: 1 1 0 0 0 0 0 0 1 1
FullNghs:       474041 ave      482676 max      463971 min
Histogram: 1 0 0 0 1 0 1 0 0 1

Total # of neighbors = 1896164
Ave neighs/atom = 120.98284
Neighbor list builds = 0
Dangerous builds = 0

#INDENT DISTANCE, 0.10
fix 	2 all indent 10.0 sphere 80.00 80.00 227.90 100.0 units box
fix_modify	2 energy yes
minimize	2.3e-16 1.0e-3 200000 200000
WARNING: Using 'neigh_modify every 1 delay 0 check yes' setting during minimization (src/min.cpp:187)
Per MPI rank memory allocation (min/avg/max) = 9.342 | 9.345 | 9.349 Mbytes
   Step         f_3[3]         PotEng    
       213   1.0106146e-05 -51228.916    
       214   1.0106146e-05 -51228.916    
Loop time of 0.20015 on 4 procs for 1 steps with 15673 atoms

99.4% CPU use with 4 MPI tasks x 1 OpenMP threads

Minimization stats:
  Stopping criterion = linesearch alpha is zero
  Energy initial, next-to-last, final = 
     -51228.9163055833  -51228.9163055833  -51228.9163055833
  Force two-norm initial, final = 149472.53 149475.26
  Force max component initial, final = 14931.548 14931.741
  Final line search alpha, max atom move = 3.806934e-19 5.6844151e-15
  Iterations, force evaluations = 1 45

MPI task timing breakdown:
Section |  min time  |  avg time  |  max time  |%varavg| %total
---------------------------------------------------------------
Pair    | 0.1752     | 0.1787     | 0.1829     |   0.7 | 89.28
Neigh   | 0          | 0          | 0          |   0.0 |  0.00
Comm    | 0.0029243  | 0.0070302  | 0.010428   |   3.3 |  3.51
Output  | 0          | 0          | 0          |   0.0 |  0.00
Modify  | 0.0016498  | 0.001747   | 0.001914   |   0.2 |  0.87
Other   |            | 0.01268    |            |       |  6.33

Nlocal:        3918.25 ave        3986 max        3841 min
Histogram: 1 0 0 0 1 0 1 0 0 1
Nghost:        2113.75 ave        2177 max        2060 min
Histogram: 1 0 0 1 1 0 0 0 0 1
Neighs:         237020 ave      244220 max      229609 min
Histogram: 1 1 0 0 0 0 0 0 1 1
FullNghs:       474041 ave      482676 max      463971 min
Histogram: 1 0 0 0 1 0 1 0 0 1

Total # of neighbors = 1896164
Ave neighs/atom = 120.98284
Neighbor list builds = 0
Dangerous builds = 0

#INDENT DISTANCE, 0.20
fix 	2 all indent 10.0 sphere 80.00 80.00 227.80 100.0 units box
fix_modify	2 energy yes
minimize	2.3e-16 1.0e-3 200000 200000
WARNING: Using 'neigh_modify every 1 delay 0 check yes' setting during minimization (src/min.cpp:187)
Per MPI rank memory allocation (min/avg/max) = 9.342 | 9.345 | 9.349 Mbytes
   Step         f_3[3]         PotEng    
       214   1.0106146e-05 -51225.314    
       215   1.0106146e-05 -51225.314    
Loop time of 0.215526 on 4 procs for 1 steps with 15673 atoms

98.9% CPU use with 4 MPI tasks x 1 OpenMP threads

Minimization stats:
  Stopping criterion = linesearch alpha is zero
  Energy initial, next-to-last, final = 
     -51225.3137494498  -51225.3137494498  -51225.3137494498
  Force two-norm initial, final = 149475.3 149478.03
  Force max component initial, final = 14931.741 14931.933
  Final line search alpha, max atom move = 3.8068849e-19 5.6844151e-15
  Iterations, force evaluations = 1 45

MPI task timing breakdown:
Section |  min time  |  avg time  |  max time  |%varavg| %total
---------------------------------------------------------------
Pair    | 0.17782    | 0.18274    | 0.1876     |   0.8 | 84.79
Neigh   | 0          | 0          | 0          |   0.0 |  0.00
Comm    | 0.0031415  | 0.0080381  | 0.013002   |   4.0 |  3.73
Output  | 0          | 0          | 0          |   0.0 |  0.00
Modify  | 0.0017004  | 0.001818   | 0.0019117  |   0.2 |  0.84
Other   |            | 0.02293    |            |       | 10.64

Nlocal:        3918.25 ave        3986 max        3841 min
Histogram: 1 0 0 0 1 0 1 0 0 1
Nghost:        2113.75 ave        2177 max        2060 min
Histogram: 1 0 0 1 1 0 0 0 0 1
Neighs:         237020 ave      244220 max      229609 min
Histogram: 1 1 0 0 0 0 0 0 1 1
FullNghs:       474041 ave      482676 max      463971 min
Histogram: 1 0 0 0 1 0 1 0 0 1

Total # of neighbors = 1896164
Ave neighs/atom = 120.98284
Neighbor list builds = 0
Dangerous builds = 0

#INDENT DISTANCE, 0.30
fix 	2 all indent 10.0 sphere 80.00 80.00 227.70 100.0 units box
fix_modify	2 energy yes
minimize	2.3e-16 1.0e-3 200000 200000
WARNING: Using 'neigh_modify every 1 delay 0 check yes' setting during minimization (src/min.cpp:187)
Per MPI rank memory allocation (min/avg/max) = 9.342 | 9.345 | 9.349 Mbytes
   Step         f_3[3]         PotEng    
       215   1.0106146e-05 -51219.182    
       216   1.0106146e-05 -51219.182    
Loop time of 0.200942 on 4 procs for 1 steps with 15673 atoms

99.4% CPU use with 4 MPI tasks x 1 OpenMP threads

Minimization stats:
  Stopping criterion = linesearch alpha is zero
  Energy initial, next-to-last, final = 
     -51219.1821949548  -51219.1821949548  -51219.1821949548
  Force two-norm initial, final = 149478.09 149480.82
  Force max component initial, final = 14931.933 14932.125
  Final line search alpha, max atom move = 3.8068359e-19 5.6844151e-15
  Iterations, force evaluations = 1 45

MPI task timing breakdown:
Section |  min time  |  avg time  |  max time  |%varavg| %total
---------------------------------------------------------------
Pair    | 0.17597    | 0.17969    | 0.1843     |   0.7 | 89.42
Neigh   | 0          | 0          | 0          |   0.0 |  0.00
Comm    | 0.0025235  | 0.0071492  | 0.01089    |   3.7 |  3.56
Output  | 0          | 0          | 0          |   0.0 |  0.00
Modify  | 0.0016522  | 0.0017377  | 0.0018292  |   0.2 |  0.86
Other   |            | 0.01237    |            |       |  6.15

Nlocal:        3918.25 ave        3986 max        3841 min
Histogram: 1 0 0 0 1 0 1 0 0 1
Nghost:        2113.75 ave        2177 max        2060 min
Histogram: 1 0 0 1 1 0 0 0 0 1
Neighs:         237020 ave      244220 max      229609 min
Histogram: 1 1 0 0 0 0 0 0 1 1
FullNghs:       474041 ave      482676 max      463971 min
Histogram: 1 0 0 0 1 0 1 0 0 1

Total # of neighbors = 1896164
Ave neighs/atom = 120.98284
Neighbor list builds = 0
Dangerous builds = 0

#INDENT DISTANCE, 0.40
fix 	2 all indent 10.0 sphere 80.00 80.00 227.60 100.0 units box
fix_modify	2 energy yes
minimize	2.3e-16 1.0e-3 200000 200000
WARNING: Using 'neigh_modify every 1 delay 0 check yes' setting during minimization (src/min.cpp:187)
Per MPI rank memory allocation (min/avg/max) = 9.342 | 9.345 | 9.349 Mbytes
   Step         f_3[3]         PotEng    
       216   1.0106146e-05 -51209.566    
       217   1.0106146e-05 -51209.566    
Loop time of 0.213493 on 4 procs for 1 steps with 15673 atoms

99.2% CPU use with 4 MPI tasks x 1 OpenMP threads

Minimization stats:
  Stopping criterion = linesearch alpha is zero
  Energy initial, next-to-last, final = 
      -51209.566480276   -51209.566480276   -51209.566480276
  Force two-norm initial, final = 149480.91 149483.64
  Force max component initial, final = 14932.125 14932.318
  Final line search alpha, max atom move = 3.8067869e-19 5.6844151e-15
  Iterations, force evaluations = 1 45

MPI task timing breakdown:
Section |  min time  |  avg time  |  max time  |%varavg| %total
---------------------------------------------------------------
Pair    | 0.17685    | 0.18175    | 0.18595    |   0.8 | 85.13
Neigh   | 0          | 0          | 0          |   0.0 |  0.00
Comm    | 0.004233   | 0.0084308  | 0.013341   |   3.5 |  3.95
Output  | 0          | 0          | 0          |   0.0 |  0.00
Modify  | 0.0016776  | 0.0017508  | 0.0018307  |   0.1 |  0.82
Other   |            | 0.02156    |            |       | 10.10

Nlocal:        3918.25 ave        3986 max        3841 min
Histogram: 1 0 0 0 1 0 1 0 0 1
Nghost:        2113.75 ave        2177 max        2060 min
Histogram: 1 0 0 1 1 0 0 0 0 1
Neighs:         237020 ave      244220 max      229609 min
Histogram: 1 1 0 0 0 0 0 0 1 1
FullNghs:       474041 ave      482676 max      463971 min
Histogram: 1 0 0 0 1 0 1 0 0 1

Total # of neighbors = 1896164
Ave neighs/atom = 120.98284
Neighbor list builds = 0
Dangerous builds = 0

#INDENT DISTANCE, 0.50
fix 	2 all indent 10.0 sphere 80.00 80.00 227.50 100.0 units box
fix_modify	2 energy yes
minimize	2.3e-16 1.0e-3 200000 200000
WARNING: Using 'neigh_modify every 1 delay 0 check yes' setting during minimization (src/min.cpp:187)
Per MPI rank memory allocation (min/avg/max) = 9.342 | 9.345 | 9.349 Mbytes
   Step         f_3[3]         PotEng    
       217   1.0106146e-05 -51195.367    
       218   1.0106146e-05 -51195.367    
Loop time of 0.212613 on 4 procs for 1 steps with 15673 atoms

97.3% CPU use with 4 MPI tasks x 1 OpenMP threads

Minimization stats:
  Stopping criterion = linesearch alpha is zero
  Energy initial, next-to-last, final = 
     -51195.3667927847  -51195.3667927847  -51195.3667927847
  Force two-norm initial, final = 149483.77 149486.5
  Force max component initial, final = 14932.318 14932.51
  Final line search alpha, max atom move = 3.8067379e-19 5.6844151e-15
  Iterations, force evaluations = 1 45

MPI task timing breakdown:
Section |  min time  |  avg time  |  max time  |%varavg| %total
---------------------------------------------------------------
Pair    | 0.18402    | 0.1882     | 0.19198    |   0.7 | 88.52
Neigh   | 0          | 0          | 0          |   0.0 |  0.00
Comm    | 0.0050878  | 0.0089058  | 0.013104   |   3.1 |  4.19
Output  | 0          | 0          | 0          |   0.0 |  0.00
Modify  | 0.0018108  | 0.0018928  | 0.0020352  |   0.2 |  0.89
Other   |            | 0.01361    |            |       |  6.40

Nlocal:        3918.25 ave        3986 max        3841 min
Histogram: 1 0 0 0 1 0 1 0 0 1
Nghost:        2113.75 ave        2177 max        2060 min
Histogram: 1 0 0 1 1 0 0 0 0 1
Neighs:         237020 ave      244220 max      229609 min
Histogram: 1 1 0 0 0 0 0 0 1 1
FullNghs:       474041 ave      482676 max      463971 min
Histogram: 1 0 0 0 1 0 1 0 0 1

Total # of neighbors = 1896164
Ave neighs/atom = 120.98284
Neighbor list builds = 0
Dangerous builds = 0

#INDENT DISTANCE, 0.60
fix 	2 all indent 10.0 sphere 80.00 80.00 227.40 100.0 units box
fix_modify	2 energy yes
minimize	2.3e-16 1.0e-3 200000 200000
WARNING: Using 'neigh_modify every 1 delay 0 check yes' setting during minimization (src/min.cpp:187)
Per MPI rank memory allocation (min/avg/max) = 9.342 | 9.345 | 9.349 Mbytes
   Step         f_3[3]         PotEng    
       218   1.0106146e-05 -51175.352    
       219   1.0106146e-05 -51175.352    
Loop time of 0.223567 on 4 procs for 1 steps with 15673 atoms

97.2% CPU use with 4 MPI tasks x 1 OpenMP threads

Minimization stats:
  Stopping criterion = linesearch alpha is zero
  Energy initial, next-to-last, final = 
     -51175.3523914717  -51175.3523914717  -51175.3523914717
  Force two-norm initial, final = 149486.68 149489.41
  Force max component initial, final = 14932.51 14932.702
  Final line search alpha, max atom move = 3.8066889e-19 5.6844151e-15
  Iterations, force evaluations = 1 45

MPI task timing breakdown:
Section |  min time  |  avg time  |  max time  |%varavg| %total
---------------------------------------------------------------
Pair    | 0.18489    | 0.18895    | 0.19363    |   0.7 | 84.51
Neigh   | 0          | 0          | 0          |   0.0 |  0.00
Comm    | 0.0052374  | 0.0098809  | 0.013911   |   3.1 |  4.42
Output  | 0          | 0          | 0          |   0.0 |  0.00
Modify  | 0.0018053  | 0.0019394  | 0.0020872  |   0.2 |  0.87
Other   |            | 0.0228     |            |       | 10.20

Nlocal:        3918.25 ave        3986 max        3841 min
Histogram: 1 0 0 0 1 0 1 0 0 1
Nghost:        2113.75 ave        2177 max        2060 min
Histogram: 1 0 0 1 1 0 0 0 0 1
Neighs:         237020 ave      244220 max      229609 min
Histogram: 1 1 0 0 0 0 0 0 1 1
FullNghs:       474041 ave      482676 max      463971 min
Histogram: 1 0 0 0 1 0 1 0 0 1

Total # of neighbors = 1896164
Ave neighs/atom = 120.98284
Neighbor list builds = 0
Dangerous builds = 0

#INDENT DISTANCE, 0.70
fix 	2 all indent 10.0 sphere 80.00 80.00 227.30 100.0 units box
fix_modify	2 energy yes
minimize	2.3e-16 1.0e-3 200000 200000
WARNING: Using 'neigh_modify every 1 delay 0 check yes' setting during minimization (src/min.cpp:187)
Per MPI rank memory allocation (min/avg/max) = 9.342 | 9.345 | 9.349 Mbytes
   Step         f_3[3]         PotEng    
       219   1.0106146e-05 -51148.138    
       220   1.0106146e-05 -51148.138    
Loop time of 0.206819 on 4 procs for 1 steps with 15673 atoms

98.2% CPU use with 4 MPI tasks x 1 OpenMP threads

Minimization stats:
  Stopping criterion = linesearch alpha is zero
  Energy initial, next-to-last, final = 
     -51148.1377086208  -51148.1377086208  -51148.1377086208
  Force two-norm initial, final = 149489.66 149492.39
  Force max component initial, final = 14932.702 14932.894
  Final line search alpha, max atom move = 3.8066398e-19 5.6844151e-15
  Iterations, force evaluations = 1 45

MPI task timing breakdown:
Section |  min time  |  avg time  |  max time  |%varavg| %total
---------------------------------------------------------------
Pair    | 0.18005    | 0.18433    | 0.1883     |   0.7 | 89.13
Neigh   | 0          | 0          | 0          |   0.0 |  0.00
Comm    | 0.0044193  | 0.008395   | 0.012685   |   3.3 |  4.06
Output  | 0          | 0          | 0          |   0.0 |  0.00
Modify  | 0.0017406  | 0.0018981  | 0.0020641  |   0.3 |  0.92
Other   |            | 0.0122     |            |       |  5.90

Nlocal:        3918.25 ave        3986 max        3841 min
Histogram: 1 0 0 0 1 0 1 0 0 1
Nghost:        2113.75 ave        2177 max        2060 min
Histogram: 1 0 0 1 1 0 0 0 0 1
Neighs:         237020 ave      244220 max      229609 min
Histogram: 1 1 0 0 0 0 0 0 1 1
FullNghs:       474041 ave      482676 max      463971 min
Histogram: 1 0 0 0 1 0 1 0 0 1

Total # of neighbors = 1896164
Ave neighs/atom = 120.98284
Neighbor list builds = 0
Dangerous builds = 0

#INDENT DISTANCE, 0.80
fix 	2 all indent 10.0 sphere 80.00 80.00 227.20 100.0 units box
fix_modify	2 energy yes
minimize	2.3e-16 1.0e-3 200000 200000
WARNING: Using 'neigh_modify every 1 delay 0 check yes' setting during minimization (src/min.cpp:187)
Per MPI rank memory allocation (min/avg/max) = 9.342 | 9.345 | 9.349 Mbytes
   Step         f_3[3]         PotEng    
       220   1.0106146e-05 -51112.224    
       221   1.0106146e-05 -51112.224    
Loop time of 0.208204 on 4 procs for 1 steps with 15673 atoms

99.5% CPU use with 4 MPI tasks x 1 OpenMP threads

Minimization stats:
  Stopping criterion = linesearch alpha is zero
  Energy initial, next-to-last, final = 
      -51112.223525656   -51112.223525656   -51112.223525656
  Force two-norm initial, final = 149492.71 149495.44
  Force max component initial, final = 14932.894 14933.087
  Final line search alpha, max atom move = 3.8065908e-19 5.6844151e-15
  Iterations, force evaluations = 1 45

MPI task timing breakdown:
Section |  min time  |  avg time  |  max time  |%varavg| %total
---------------------------------------------------------------
Pair    | 0.17324    | 0.17713    | 0.18096    |   0.7 | 85.07
Neigh   | 0          | 0          | 0          |   0.0 |  0.00
Comm    | 0.0034296  | 0.0073931  | 0.011414   |   3.7 |  3.55
Output  | 0          | 0          | 0          |   0.0 |  0.00
Modify  | 0.0015838  | 0.0017193  | 0.0019143  |   0.3 |  0.83
Other   |            | 0.02196    |            |       | 10.55

Nlocal:        3918.25 ave        3986 max        3841 min
Histogram: 1 0 0 0 1 0 1 0 0 1
Nghost:        2113.75 ave        2177 max        2060 min
Histogram: 1 0 0 1 1 0 0 0 0 1
Neighs:         237020 ave      244220 max      229609 min
Histogram: 1 1 0 0 0 0 0 0 1 1
FullNghs:       474041 ave      482676 max      463971 min
Histogram: 1 0 0 0 1 0 1 0 0 1

Total # of neighbors = 1896164
Ave neighs/atom = 120.98284
Neighbor list builds = 0
Dangerous builds = 0

#INDENT DISTANCE, 0.90
fix 	2 all indent 10.0 sphere 80.00 80.00 227.10 100.0 units box
fix_modify	2 energy yes
minimize	2.3e-16 1.0e-3 200000 200000
WARNING: Using 'neigh_modify every 1 delay 0 check yes' setting during minimization (src/min.cpp:187)
Per MPI rank memory allocation (min/avg/max) = 9.342 | 9.345 | 9.349 Mbytes
   Step         f_3[3]         PotEng    
       221   1.0106146e-05 -51066.09     
       222   1.0106146e-05 -51066.09     
Loop time of 0.20659 on 4 procs for 1 steps with 15673 atoms

98.1% CPU use with 4 MPI tasks x 1 OpenMP threads

Minimization stats:
  Stopping criterion = linesearch alpha is zero
  Energy initial, next-to-last, final = 
     -51066.0902171567  -51066.0902171567  -51066.0902171567
  Force two-norm initial, final = 149495.83 149498.56
  Force max component initial, final = 14933.087 14933.279
  Final line search alpha, max atom move = 3.8065418e-19 5.6844151e-15
  Iterations, force evaluations = 1 45

MPI task timing breakdown:
Section |  min time  |  avg time  |  max time  |%varavg| %total
---------------------------------------------------------------
Pair    | 0.17958    | 0.18402    | 0.18779    |   0.7 | 89.07
Neigh   | 0          | 0          | 0          |   0.0 |  0.00
Comm    | 0.0045295  | 0.0083     | 0.012737   |   3.3 |  4.02
Output  | 0          | 0          | 0          |   0.0 |  0.00
Modify  | 0.0017829  | 0.0018895  | 0.0019692  |   0.2 |  0.91
Other   |            | 0.01238    |            |       |  5.99

Nlocal:        3918.25 ave        3986 max        3841 min
Histogram: 1 0 0 0 1 0 1 0 0 1
Nghost:        2113.75 ave        2177 max        2060 min
Histogram: 1 0 0 1 1 0 0 0 0 1
Neighs:         237020 ave      244220 max      229609 min
Histogram: 1 1 0 0 0 0 0 0 1 1
FullNghs:       474041 ave      482676 max      463971 min
Histogram: 1 0 0 0 1 0 1 0 0 1

Total # of neighbors = 1896164
Ave neighs/atom = 120.98284
Neighbor list builds = 0
Dangerous builds = 0

#INDENT DISTANCE, 1.00
fix 	2 all indent 10.0 sphere 80.00 80.00 227.00 100.0 units box
fix_modify	2 energy yes
minimize	2.3e-16 1.0e-3 200000 200000
WARNING: Using 'neigh_modify every 1 delay 0 check yes' setting during minimization (src/min.cpp:187)
Per MPI rank memory allocation (min/avg/max) = 9.342 | 9.345 | 9.349 Mbytes
   Step         f_3[3]         PotEng    
       222   1.0106146e-05 -51008.218    
       223   1.0106146e-05 -51008.218    
Loop time of 0.223784 on 4 procs for 1 steps with 15673 atoms

97.5% CPU use with 4 MPI tasks x 1 OpenMP threads

Minimization stats:
  Stopping criterion = linesearch alpha is zero
  Energy initial, next-to-last, final = 
      -51008.218228898   -51008.218228898   -51008.218228898
  Force two-norm initial, final = 149499.03 149501.76
  Force max component initial, final = 14933.279 14933.471
  Final line search alpha, max atom move = 3.8064928e-19 5.6844151e-15
  Iterations, force evaluations = 1 45

MPI task timing breakdown:
Section |  min time  |  avg time  |  max time  |%varavg| %total
---------------------------------------------------------------
Pair    | 0.18534    | 0.18886    | 0.19428    |   0.8 | 84.39
Neigh   | 0          | 0          | 0          |   0.0 |  0.00
Comm    | 0.0052695  | 0.010742   | 0.014299   |   3.2 |  4.80
Output  | 0          | 0          | 0          |   0.0 |  0.00
Modify  | 0.0018009  | 0.0019597  | 0.0021033  |   0.3 |  0.88
Other   |            | 0.02223    |            |       |  9.93

Nlocal:        3918.25 ave        3986 max        3841 min
Histogram: 1 0 0 0 1 0 1 0 0 1
Nghost:        2113.75 ave        2177 max        2060 min
Histogram: 1 0 0 1 1 0 0 0 0 1
Neighs:         237020 ave      244220 max      229609 min
Histogram: 1 1 0 0 0 0 0 0 1 1
FullNghs:       474041 ave      482676 max      463971 min
Histogram: 1 0 0 0 1 0 1 0 0 1

Total # of neighbors = 1896164
Ave neighs/atom = 120.98284
Neighbor list builds = 0
Dangerous builds = 0

#INDENT DISTANCE, 1.10
fix 	2 all indent 10.0 sphere 80.00 80.00 226.90 100.0 units box
fix_modify	2 energy yes
minimize	2.3e-16 1.0e-3 200000 200000
WARNING: Using 'neigh_modify every 1 delay 0 check yes' setting during minimization (src/min.cpp:187)
Per MPI rank memory allocation (min/avg/max) = 9.342 | 9.345 | 9.349 Mbytes
   Step         f_3[3]         PotEng    
       223   1.0106146e-05 -50937.088    
       224   1.0106146e-05 -50937.088    
Loop time of 0.211516 on 4 procs for 1 steps with 15673 atoms

97.8% CPU use with 4 MPI tasks x 1 OpenMP threads

Minimization stats:
  Stopping criterion = linesearch alpha is zero
  Energy initial, next-to-last, final = 
     -50937.0880883767  -50937.0880883767  -50937.0880883767
  Force two-norm initial, final = 149502.3 149505.03
  Force max component initial, final = 14933.471 14933.664
  Final line search alpha, max atom move = 3.8064438e-19 5.6844151e-15
  Iterations, force evaluations = 1 45

MPI task timing breakdown:
Section |  min time  |  avg time  |  max time  |%varavg| %total
---------------------------------------------------------------
Pair    | 0.18121    | 0.18495    | 0.1905     |   0.8 | 87.44
Neigh   | 0          | 0          | 0          |   0.0 |  0.00
Comm    | 0.0046997  | 0.010201   | 0.013965   |   3.5 |  4.82
Output  | 0          | 0          | 0          |   0.0 |  0.00
Modify  | 0.0017708  | 0.0018878  | 0.0019553  |   0.2 |  0.89
Other   |            | 0.01447    |            |       |  6.84

Nlocal:        3918.25 ave        3986 max        3841 min
Histogram: 1 0 0 0 1 0 1 0 0 1
Nghost:        2113.75 ave        2177 max        2060 min
Histogram: 1 0 0 1 1 0 0 0 0 1
Neighs:         237020 ave      244220 max      229609 min
Histogram: 1 1 0 0 0 0 0 0 1 1
FullNghs:       474041 ave      482676 max      463971 min
Histogram: 1 0 0 0 1 0 1 0 0 1

Total # of neighbors = 1896164
Ave neighs/atom = 120.98284
Neighbor list builds = 0
Dangerous builds = 0

#INDENT DISTANCE, 1.20
fix 	2 all indent 10.0 sphere 80.00 80.00 226.80 100.0 units box
fix_modify	2 energy yes
minimize	2.3e-16 1.0e-3 200000 200000
WARNING: Using 'neigh_modify every 1 delay 0 check yes' setting during minimization (src/min.cpp:187)
Per MPI rank memory allocation (min/avg/max) = 9.342 | 9.345 | 9.349 Mbytes
   Step         f_3[3]         PotEng    
       224   1.0106146e-05 -50851.18     
       225   1.0106146e-05 -50851.18     
Loop time of 0.222591 on 4 procs for 1 steps with 15673 atoms

97.4% CPU use with 4 MPI tasks x 1 OpenMP threads

Minimization stats:
  Stopping criterion = linesearch alpha is zero
  Energy initial, next-to-last, final = 
     -50851.1804052186  -50851.1804052186  -50851.1804052186
  Force two-norm initial, final = 149505.64 149508.37
  Force max component initial, final = 14933.664 14933.856
  Final line search alpha, max atom move = 3.8063947e-19 5.6844151e-15
  Iterations, force evaluations = 1 45

MPI task timing breakdown:
Section |  min time  |  avg time  |  max time  |%varavg| %total
---------------------------------------------------------------
Pair    | 0.17944    | 0.1839     | 0.1894     |   0.9 | 82.62
Neigh   | 0          | 0          | 0          |   0.0 |  0.00
Comm    | 0.0039335  | 0.0094222  | 0.013863   |   3.8 |  4.23
Output  | 0          | 0          | 0          |   0.0 |  0.00
Modify  | 0.0017315  | 0.0018914  | 0.0020209  |   0.2 |  0.85
Other   |            | 0.02738    |            |       | 12.30

Nlocal:        3918.25 ave        3986 max        3841 min
Histogram: 1 0 0 0 1 0 1 0 0 1
Nghost:        2113.75 ave        2177 max        2060 min
Histogram: 1 0 0 1 1 0 0 0 0 1
Neighs:         237020 ave      244220 max      229609 min
Histogram: 1 1 0 0 0 0 0 0 1 1
FullNghs:       474041 ave      482676 max      463971 min
Histogram: 1 0 0 0 1 0 1 0 0 1

Total # of neighbors = 1896164
Ave neighs/atom = 120.98284
Neighbor list builds = 0
Dangerous builds = 0

#INDENT DISTANCE, 1.30
fix 	2 all indent 10.0 sphere 80.00 80.00 226.70 100.0 units box
fix_modify	2 energy yes
minimize	2.3e-16 1.0e-3 200000 200000
WARNING: Using 'neigh_modify every 1 delay 0 check yes' setting during minimization (src/min.cpp:187)
Per MPI rank memory allocation (min/avg/max) = 9.342 | 9.345 | 9.349 Mbytes
   Step         f_3[3]         PotEng    
       225   1.0106146e-05 -50748.976    
       226   1.0106146e-05 -50748.976    
Loop time of 0.29209 on 4 procs for 1 steps with 15673 atoms

85.8% CPU use with 4 MPI tasks x 1 OpenMP threads

Minimization stats:
  Stopping criterion = linesearch alpha is zero
  Energy initial, next-to-last, final = 
     -50748.9758715885  -50748.9758715885  -50748.9758715885
  Force two-norm initial, final = 149509.05 149511.78
  Force max component initial, final = 14933.856 14934.048
  Final line search alpha, max atom move = 3.8063457e-19 5.6844151e-15
  Iterations, force evaluations = 1 45

MPI task timing breakdown:
Section |  min time  |  avg time  |  max time  |%varavg| %total
---------------------------------------------------------------
Pair    | 0.22143    | 0.2326     | 0.2403     |   1.5 | 79.63
Neigh   | 0          | 0          | 0          |   0.0 |  0.00
Comm    | 0.033371   | 0.041968   | 0.054223   |   3.7 | 14.37
Output  | 0          | 0          | 0          |   0.0 |  0.00
Modify  | 0.0018518  | 0.0022323  | 0.0027087  |   0.7 |  0.76
Other   |            | 0.01529    |            |       |  5.23

Nlocal:        3918.25 ave        3986 max        3841 min
Histogram: 1 0 0 0 1 0 1 0 0 1
Nghost:        2113.75 ave        2177 max        2060 min
Histogram: 1 0 0 1 1 0 0 0 0 1
Neighs:         237020 ave      244220 max      229609 min
Histogram: 1 1 0 0 0 0 0 0 1 1
FullNghs:       474041 ave      482676 max      463971 min
Histogram: 1 0 0 0 1 0 1 0 0 1

Total # of neighbors = 1896164
Ave neighs/atom = 120.98284
Neighbor list builds = 0
Dangerous builds = 0

#INDENT DISTANCE, 1.40
fix 	2 all indent 10.0 sphere 80.00 80.00 226.60 100.0 units box
fix_modify	2 energy yes
minimize	2.3e-16 1.0e-3 200000 200000
WARNING: Using 'neigh_modify every 1 delay 0 check yes' setting during minimization (src/min.cpp:187)
Per MPI rank memory allocation (min/avg/max) = 9.342 | 9.345 | 9.349 Mbytes
   Step         f_3[3]         PotEng    
       226   1.0106146e-05 -50628.955    
       227   1.0106146e-05 -50628.955    
Loop time of 0.23493 on 4 procs for 1 steps with 15673 atoms

95.9% CPU use with 4 MPI tasks x 1 OpenMP threads

Minimization stats:
  Stopping criterion = linesearch alpha is zero
  Energy initial, next-to-last, final = 
     -50628.9552626026  -50628.9552626026  -50628.9552626026
  Force two-norm initial, final = 149512.54 149515.27
  Force max component initial, final = 14934.048 14934.241
  Final line search alpha, max atom move = 3.8062967e-19 5.6844151e-15
  Iterations, force evaluations = 1 45

MPI task timing breakdown:
Section |  min time  |  avg time  |  max time  |%varavg| %total
---------------------------------------------------------------
Pair    | 0.1934     | 0.1968     | 0.20159    |   0.7 | 83.77
Neigh   | 0          | 0          | 0          |   0.0 |  0.00
Comm    | 0.0072275  | 0.012058   | 0.0155     |   3.0 |  5.13
Output  | 0          | 0          | 0          |   0.0 |  0.00
Modify  | 0.0020413  | 0.0022021  | 0.0023745  |   0.3 |  0.94
Other   |            | 0.02387    |            |       | 10.16

Nlocal:        3918.25 ave        3986 max        3841 min
Histogram: 1 0 0 0 1 0 1 0 0 1
Nghost:        2113.75 ave        2177 max        2060 min
Histogram: 1 0 0 1 1 0 0 0 0 1
Neighs:         237020 ave      244220 max      229609 min
Histogram: 1 1 0 0 0 0 0 0 1 1
FullNghs:       474041 ave      482676 max      463971 min
Histogram: 1 0 0 0 1 0 1 0 0 1

Total # of neighbors = 1896164
Ave neighs/atom = 120.98284
Neighbor list builds = 0
Dangerous builds = 0

#INDENT DISTANCE, 1.50
fix 	2 all indent 10.0 sphere 80.00 80.00 226.50 100.0 units box
fix_modify	2 energy yes
minimize	2.3e-16 1.0e-3 200000 200000
WARNING: Using 'neigh_modify every 1 delay 0 check yes' setting during minimization (src/min.cpp:187)
Per MPI rank memory allocation (min/avg/max) = 9.342 | 9.345 | 9.349 Mbytes
   Step         f_3[3]         PotEng    
       227   1.0106146e-05 -50489.599    
       228   1.0106146e-05 -50489.599    
Loop time of 0.210548 on 4 procs for 1 steps with 15673 atoms

98.0% CPU use with 4 MPI tasks x 1 OpenMP threads

Minimization stats:
  Stopping criterion = linesearch alpha is zero
  Energy initial, next-to-last, final = 
     -50489.5994367434  -50489.5994367434  -50489.5994367434
  Force two-norm initial, final = 149516.1 149518.83
  Force max component initial, final = 14934.241 14934.433
  Final line search alpha, max atom move = 3.8062477e-19 5.6844151e-15
  Iterations, force evaluations = 1 45

MPI task timing breakdown:
Section |  min time  |  avg time  |  max time  |%varavg| %total
---------------------------------------------------------------
Pair    | 0.18332    | 0.18652    | 0.19119    |   0.7 | 88.59
Neigh   | 0          | 0          | 0          |   0.0 |  0.00
Comm    | 0.0049036  | 0.0096462  | 0.012876   |   3.0 |  4.58
Output  | 0          | 0          | 0          |   0.0 |  0.00
Modify  | 0.0018365  | 0.0019351  | 0.0020502  |   0.2 |  0.92
Other   |            | 0.01245    |            |       |  5.91

Nlocal:        3918.25 ave        3986 max        3841 min
Histogram: 1 0 0 0 1 0 1 0 0 1
Nghost:        2113.75 ave        2177 max        2060 min
Histogram: 1 0 0 1 1 0 0 0 0 1
Neighs:         237020 ave      244220 max      229609 min
Histogram: 1 1 0 0 0 0 0 0 1 1
FullNghs:       474041 ave      482676 max      463971 min
Histogram: 1 0 0 0 1 0 1 0 0 1

Total # of neighbors = 1896164
Ave neighs/atom = 120.98284
Neighbor list builds = 0
Dangerous builds = 0

#INDENT DISTANCE, 1.60
fix 	2 all indent 10.0 sphere 80.00 80.00 226.40 100.0 units box
fix_modify	2 energy yes
minimize	2.3e-16 1.0e-3 200000 200000
WARNING: Using 'neigh_modify every 1 delay 0 check yes' setting during minimization (src/min.cpp:187)
Per MPI rank memory allocation (min/avg/max) = 9.342 | 9.345 | 9.349 Mbytes
   Step         f_3[3]         PotEng    
       228   1.0106146e-05 -50329.389    
       229   1.0106146e-05 -50329.389    
Loop time of 0.21209 on 4 procs for 1 steps with 15673 atoms

99.5% CPU use with 4 MPI tasks x 1 OpenMP threads

Minimization stats:
  Stopping criterion = linesearch alpha is zero
  Energy initial, next-to-last, final = 
     -50329.3893362767  -50329.3893362767  -50329.3893362767
  Force two-norm initial, final = 149519.74 149522.47
  Force max component initial, final = 14934.433 14934.625
  Final line search alpha, max atom move = 3.8061987e-19 5.6844151e-15
  Iterations, force evaluations = 1 45

MPI task timing breakdown:
Section |  min time  |  avg time  |  max time  |%varavg| %total
---------------------------------------------------------------
Pair    | 0.17614    | 0.17949    | 0.18432    |   0.7 | 84.63
Neigh   | 0          | 0          | 0          |   0.0 |  0.00
Comm    | 0.0042307  | 0.0090864  | 0.012457   |   3.3 |  4.28
Output  | 0          | 0          | 0          |   0.0 |  0.00
Modify  | 0.0016401  | 0.0017355  | 0.0018393  |   0.2 |  0.82
Other   |            | 0.02178    |            |       | 10.27

Nlocal:        3918.25 ave        3986 max        3841 min
Histogram: 1 0 0 0 1 0 1 0 0 1
Nghost:        2113.75 ave        2177 max        2060 min
Histogram: 1 0 0 1 1 0 0 0 0 1
Neighs:         237020 ave      244220 max      229609 min
Histogram: 1 1 0 0 0 0 0 0 1 1
FullNghs:       474041 ave      482676 max      463971 min
Histogram: 1 0 0 0 1 0 1 0 0 1

Total # of neighbors = 1896164
Ave neighs/atom = 120.98284
Neighbor list builds = 0
Dangerous builds = 0

#INDENT DISTANCE, 1.70
fix 	2 all indent 10.0 sphere 80.00 80.00 226.30 100.0 units box
fix_modify	2 energy yes
minimize	2.3e-16 1.0e-3 200000 200000
WARNING: Using 'neigh_modify every 1 delay 0 check yes' setting during minimization (src/min.cpp:187)
Per MPI rank memory allocation (min/avg/max) = 9.342 | 9.345 | 9.349 Mbytes
   Step         f_3[3]         PotEng    
       229   1.0106146e-05 -50146.806    
       230   1.0106146e-05 -50146.806    
Loop time of 0.20144 on 4 procs for 1 steps with 15673 atoms

99.6% CPU use with 4 MPI tasks x 1 OpenMP threads

Minimization stats:
  Stopping criterion = linesearch alpha is zero
  Energy initial, next-to-last, final = 
     -50146.8059876719  -50146.8059876719  -50146.8059876719
  Force two-norm initial, final = 149523.46 149526.19
  Force max component initial, final = 14934.625 14934.817
  Final line search alpha, max atom move = 3.8061497e-19 5.6844151e-15
  Iterations, force evaluations = 1 45

MPI task timing breakdown:
Section |  min time  |  avg time  |  max time  |%varavg| %total
---------------------------------------------------------------
Pair    | 0.17611    | 0.17867    | 0.18354    |   0.7 | 88.70
Neigh   | 0          | 0          | 0          |   0.0 |  0.00
Comm    | 0.0041511  | 0.0090606  | 0.011769   |   3.2 |  4.50
Output  | 0          | 0          | 0          |   0.0 |  0.00
Modify  | 0.0016179  | 0.0017469  | 0.0018262  |   0.2 |  0.87
Other   |            | 0.01196    |            |       |  5.94

Nlocal:        3918.25 ave        3986 max        3841 min
Histogram: 1 0 0 0 1 0 1 0 0 1
Nghost:        2113.75 ave        2177 max        2060 min
Histogram: 1 0 0 1 1 0 0 0 0 1
Neighs:         237020 ave      244220 max      229609 min
Histogram: 1 1 0 0 0 0 0 0 1 1
FullNghs:       474041 ave      482676 max      463971 min
Histogram: 1 0 0 0 1 0 1 0 0 1

Total # of neighbors = 1896164
Ave neighs/atom = 120.98284
Neighbor list builds = 0
Dangerous builds = 0

#INDENT DISTANCE, 1.80
fix 	2 all indent 10.0 sphere 80.00 80.00 226.20 100.0 units box
fix_modify	2 energy yes
minimize	2.3e-16 1.0e-3 200000 200000
WARNING: Using 'neigh_modify every 1 delay 0 check yes' setting during minimization (src/min.cpp:187)
Per MPI rank memory allocation (min/avg/max) = 9.342 | 9.345 | 9.349 Mbytes
   Step         f_3[3]         PotEng    
       230   1.0106146e-05 -49940.331    
       231   1.0106146e-05 -49940.331    
Loop time of 0.211492 on 4 procs for 1 steps with 15673 atoms

99.5% CPU use with 4 MPI tasks x 1 OpenMP threads

Minimization stats:
  Stopping criterion = linesearch alpha is zero
  Energy initial, next-to-last, final = 
     -49940.3305020241  -49940.3305020241  -49940.3305020241
  Force two-norm initial, final = 149527.25 149529.98
  Force max component initial, final = 14934.817 14935.01
  Final line search alpha, max atom move = 3.8061007e-19 5.6844151e-15
  Iterations, force evaluations = 1 45

MPI task timing breakdown:
Section |  min time  |  avg time  |  max time  |%varavg| %total
---------------------------------------------------------------
Pair    | 0.17414    | 0.17918    | 0.1841     |   0.8 | 84.72
Neigh   | 0          | 0          | 0          |   0.0 |  0.00
Comm    | 0.0040131  | 0.0089204  | 0.013957   |   3.8 |  4.22
Output  | 0          | 0          | 0          |   0.0 |  0.00
Modify  | 0.0016156  | 0.0017186  | 0.0018237  |   0.2 |  0.81
Other   |            | 0.02167    |            |       | 10.25

Nlocal:        3918.25 ave        3986 max        3841 min
Histogram: 1 0 0 0 1 0 1 0 0 1
Nghost:        2113.75 ave        2177 max        2060 min
Histogram: 1 0 0 1 1 0 0 0 0 1
Neighs:         237020 ave      244220 max      229609 min
Histogram: 1 1 0 0 0 0 0 0 1 1
FullNghs:       474041 ave      482676 max      463971 min
Histogram: 1 0 0 0 1 0 1 0 0 1

Total # of neighbors = 1896164
Ave neighs/atom = 120.98284
Neighbor list builds = 0
Dangerous builds = 0

#INDENT DISTANCE, 1.90
fix 	2 all indent 10.0 sphere 80.00 80.00 226.10 100.0 units box
fix_modify	2 energy yes
minimize	2.3e-16 1.0e-3 200000 200000
WARNING: Using 'neigh_modify every 1 delay 0 check yes' setting during minimization (src/min.cpp:187)
Per MPI rank memory allocation (min/avg/max) = 9.342 | 9.345 | 9.349 Mbytes
   Step         f_3[3]         PotEng    
       231   1.0106146e-05 -49708.444    
       232   1.0106146e-05 -49708.444    
Loop time of 0.199939 on 4 procs for 1 steps with 15673 atoms

99.4% CPU use with 4 MPI tasks x 1 OpenMP threads

Minimization stats:
  Stopping criterion = linesearch alpha is zero
  Energy initial, next-to-last, final = 
     -49708.4440754793  -49708.4440754793  -49708.4440754793
  Force two-norm initial, final = 149531.12 149533.85
  Force max component initial, final = 14935.01 14935.202
  Final line search alpha, max atom move = 3.8060517e-19 5.6844151e-15
  Iterations, force evaluations = 1 45

MPI task timing breakdown:
Section |  min time  |  avg time  |  max time  |%varavg| %total
---------------------------------------------------------------
Pair    | 0.17623    | 0.17925    | 0.18349    |   0.7 | 89.65
Neigh   | 0          | 0          | 0          |   0.0 |  0.00
Comm    | 0.0030019  | 0.0071631  | 0.010121   |   3.2 |  3.58
Output  | 0          | 0          | 0          |   0.0 |  0.00
Modify  | 0.0016148  | 0.0017279  | 0.0018663  |   0.2 |  0.86
Other   |            | 0.01179    |            |       |  5.90

Nlocal:        3918.25 ave        3986 max        3841 min
Histogram: 1 0 0 0 1 0 1 0 0 1
Nghost:        2113.75 ave        2177 max        2060 min
Histogram: 1 0 0 1 1 0 0 0 0 1
Neighs:         237020 ave      244220 max      229609 min
Histogram: 1 1 0 0 0 0 0 0 1 1
FullNghs:       474041 ave      482676 max      463971 min
Histogram: 1 0 0 0 1 0 1 0 0 1

Total # of neighbors = 1896164
Ave neighs/atom = 120.98284
Neighbor list builds = 0
Dangerous builds = 0

#INDENT DISTANCE, 2.00
fix 	2 all indent 10.0 sphere 80.00 80.00 226.00 100.0 units box
fix_modify	2 energy yes
minimize	2.3e-16 1.0e-3 200000 200000
WARNING: Using 'neigh_modify every 1 delay 0 check yes' setting during minimization (src/min.cpp:187)
Per MPI rank memory allocation (min/avg/max) = 9.342 | 9.345 | 9.349 Mbytes
   Step         f_3[3]         PotEng    
       232   1.0106146e-05 -49449.628    
       233   1.0106146e-05 -49449.628    
Loop time of 0.214996 on 4 procs for 1 steps with 15673 atoms

99.2% CPU use with 4 MPI tasks x 1 OpenMP threads

Minimization stats:
  Stopping criterion = linesearch alpha is zero
  Energy initial, next-to-last, final = 
     -49449.6279863378  -49449.6279863378  -49449.6279863378
  Force two-norm initial, final = 149535.07 149537.8
  Force max component initial, final = 14935.202 14935.394
  Final line search alpha, max atom move = 3.8060027e-19 5.6844151e-15
  Iterations, force evaluations = 1 45

MPI task timing breakdown:
Section |  min time  |  avg time  |  max time  |%varavg| %total
---------------------------------------------------------------
Pair    | 0.17897    | 0.18307    | 0.18774    |   0.8 | 85.15
Neigh   | 0          | 0          | 0          |   0.0 |  0.00
Comm    | 0.0032723  | 0.00806    | 0.012216   |   3.8 |  3.75
Output  | 0          | 0          | 0          |   0.0 |  0.00
Modify  | 0.0017275  | 0.0018366  | 0.0019568  |   0.2 |  0.85
Other   |            | 0.02203    |            |       | 10.25

Nlocal:        3918.25 ave        3986 max        3841 min
Histogram: 1 0 0 0 1 0 1 0 0 1
Nghost:        2113.75 ave        2177 max        2060 min
Histogram: 1 0 0 1 1 0 0 0 0 1
Neighs:         237020 ave      244220 max      229609 min
Histogram: 1 1 0 0 0 0 0 0 1 1
FullNghs:       474041 ave      482676 max      463971 min
Histogram: 1 0 0 0 1 0 1 0 0 1

Total # of neighbors = 1896164
Ave neighs/atom = 120.98284
Neighbor list builds = 0
Dangerous builds = 0

#INDENT DISTANCE, 2.10
fix 	2 all indent 10.0 sphere 80.00 80.00 225.90 100.0 units box
fix_modify	2 energy yes
minimize	2.3e-16 1.0e-3 200000 200000
WARNING: Using 'neigh_modify every 1 delay 0 check yes' setting during minimization (src/min.cpp:187)
Per MPI rank memory allocation (min/avg/max) = 9.342 | 9.345 | 9.349 Mbytes
   Step         f_3[3]         PotEng    
       233   1.0106146e-05 -49162.352    
       234   1.0106146e-05 -49162.352    
Loop time of 0.200144 on 4 procs for 1 steps with 15673 atoms

99.6% CPU use with 4 MPI tasks x 1 OpenMP threads

Minimization stats:
  Stopping criterion = linesearch alpha is zero
  Energy initial, next-to-last, final = 
     -49162.3519498089  -49162.3519498089  -49162.3519498089
  Force two-norm initial, final = 149539.1 149541.84
  Force max component initial, final = 14935.394 14935.587
  Final line search alpha, max atom move = 3.8059536e-19 5.6844151e-15
  Iterations, force evaluations = 1 45

MPI task timing breakdown:
Section |  min time  |  avg time  |  max time  |%varavg| %total
---------------------------------------------------------------
Pair    | 0.1741     | 0.17839    | 0.18347    |   0.9 | 89.13
Neigh   | 0          | 0          | 0          |   0.0 |  0.00
Comm    | 0.0031249  | 0.0082101  | 0.012496   |   4.0 |  4.10
Output  | 0          | 0          | 0          |   0.0 |  0.00
Modify  | 0.0016298  | 0.0017211  | 0.0018668  |   0.2 |  0.86
Other   |            | 0.01183    |            |       |  5.91

Nlocal:        3918.25 ave        3986 max        3841 min
Histogram: 1 0 0 0 1 0 1 0 0 1
Nghost:        2113.75 ave        2177 max        2060 min
Histogram: 1 0 0 1 1 0 0 0 0 1
Neighs:         237020 ave      244220 max      229609 min
Histogram: 1 1 0 0 0 0 0 0 1 1
FullNghs:       474041 ave      482676 max      463971 min
Histogram: 1 0 0 0 1 0 1 0 0 1

Total # of neighbors = 1896164
Ave neighs/atom = 120.98284
Neighbor list builds = 0
Dangerous builds = 0

#INDENT DISTANCE, 2.20
fix 	2 all indent 10.0 sphere 80.00 80.00 225.80 100.0 units box
fix_modify	2 energy yes
minimize	2.3e-16 1.0e-3 200000 200000
WARNING: Using 'neigh_modify every 1 delay 0 check yes' setting during minimization (src/min.cpp:187)
Per MPI rank memory allocation (min/avg/max) = 9.342 | 9.345 | 9.349 Mbytes
   Step         f_3[3]         PotEng    
       234   1.0106146e-05 -48844.988    
       235   1.0106146e-05 -48844.988    
Loop time of 0.209338 on 4 procs for 1 steps with 15673 atoms

99.5% CPU use with 4 MPI tasks x 1 OpenMP threads

Minimization stats:
  Stopping criterion = linesearch alpha is zero
  Energy initial, next-to-last, final = 
     -48844.9875938691  -48844.9875938691  -48844.9875938691
  Force two-norm initial, final = 149543.22 149545.95
  Force max component initial, final = 14935.587 14935.779
  Final line search alpha, max atom move = 3.8059046e-19 5.6844151e-15
  Iterations, force evaluations = 1 45

MPI task timing breakdown:
Section |  min time  |  avg time  |  max time  |%varavg| %total
---------------------------------------------------------------
Pair    | 0.17643    | 0.17889    | 0.18195    |   0.5 | 85.46
Neigh   | 0          | 0          | 0          |   0.0 |  0.00
Comm    | 0.0037261  | 0.0068512  | 0.0093644  |   2.5 |  3.27
Output  | 0          | 0          | 0          |   0.0 |  0.00
Modify  | 0.0017153  | 0.0017476  | 0.0017933  |   0.1 |  0.83
Other   |            | 0.02185    |            |       | 10.44

Nlocal:        3918.25 ave        3986 max        3841 min
Histogram: 1 0 0 0 1 0 1 0 0 1
Nghost:        2113.75 ave        2177 max        2060 min
Histogram: 1 0 0 1 1 0 0 0 0 1
Neighs:         237020 ave      244220 max      229609 min
Histogram: 1 1 0 0 0 0 0 0 1 1
FullNghs:       474041 ave      482676 max      463971 min
Histogram: 1 0 0 0 1 0 1 0 0 1

Total # of neighbors = 1896164
Ave neighs/atom = 120.98284
Neighbor list builds = 0
Dangerous builds = 0

#INDENT DISTANCE, 2.30
fix 	2 all indent 10.0 sphere 80.00 80.00 225.70 100.0 units box
fix_modify	2 energy yes
minimize	2.3e-16 1.0e-3 200000 200000
WARNING: Using 'neigh_modify every 1 delay 0 check yes' setting during minimization (src/min.cpp:187)
Per MPI rank memory allocation (min/avg/max) = 9.342 | 9.345 | 9.349 Mbytes
   Step         f_3[3]         PotEng    
       235   1.0106146e-05 -48495.744    
       236   1.0106146e-05 -48495.744    
Loop time of 0.200727 on 4 procs for 1 steps with 15673 atoms

99.4% CPU use with 4 MPI tasks x 1 OpenMP threads

Minimization stats:
  Stopping criterion = linesearch alpha is zero
  Energy initial, next-to-last, final = 
     -48495.7438476741  -48495.7438476741  -48495.7438476741
  Force two-norm initial, final = 149547.42 149550.15
  Force max component initial, final = 14935.779 14935.971
  Final line search alpha, max atom move = 3.8058556e-19 5.6844151e-15
  Iterations, force evaluations = 1 45

MPI task timing breakdown:
Section |  min time  |  avg time  |  max time  |%varavg| %total
---------------------------------------------------------------
Pair    | 0.17117    | 0.17755    | 0.18104    |   0.9 | 88.46
Neigh   | 0          | 0          | 0          |   0.0 |  0.00
Comm    | 0.0044597  | 0.008003   | 0.014321   |   4.2 |  3.99
Output  | 0          | 0          | 0          |   0.0 |  0.00
Modify  | 0.0015832  | 0.0017426  | 0.0019039  |   0.3 |  0.87
Other   |            | 0.01343    |            |       |  6.69

Nlocal:        3918.25 ave        3986 max        3841 min
Histogram: 1 0 0 0 1 0 1 0 0 1
Nghost:        2113.75 ave        2177 max        2060 min
Histogram: 1 0 0 1 1 0 0 0 0 1
Neighs:         237020 ave      244220 max      229609 min
Histogram: 1 1 0 0 0 0 0 0 1 1
FullNghs:       474041 ave      482676 max      463971 min
Histogram: 1 0 0 0 1 0 1 0 0 1

Total # of neighbors = 1896164
Ave neighs/atom = 120.98284
Neighbor list builds = 0
Dangerous builds = 0

#INDENT DISTANCE, 2.40
fix 	2 all indent 10.0 sphere 80.00 80.00 225.60 100.0 units box
fix_modify	2 energy yes
minimize	2.3e-16 1.0e-3 200000 200000
WARNING: Using 'neigh_modify every 1 delay 0 check yes' setting during minimization (src/min.cpp:187)
Per MPI rank memory allocation (min/avg/max) = 9.342 | 9.345 | 9.349 Mbytes
   Step         f_3[3]         PotEng    
       236   1.0106146e-05 -48112.669    
       237   1.0106146e-05 -48112.669    
Loop time of 0.212931 on 4 procs for 1 steps with 15673 atoms

99.6% CPU use with 4 MPI tasks x 1 OpenMP threads

Minimization stats:
  Stopping criterion = linesearch alpha is zero
  Energy initial, next-to-last, final = 
     -48112.6693033447  -48112.6693033447  -48112.6693033447
  Force two-norm initial, final = 149551.7 149554.43
  Force max component initial, final = 14935.971 14936.164
  Final line search alpha, max atom move = 3.8058066e-19 5.6844151e-15
  Iterations, force evaluations = 1 45

MPI task timing breakdown:
Section |  min time  |  avg time  |  max time  |%varavg| %total
---------------------------------------------------------------
Pair    | 0.17372    | 0.17985    | 0.18596    |   1.0 | 84.46
Neigh   | 0          | 0          | 0          |   0.0 |  0.00
Comm    | 0.003565   | 0.0096558  | 0.015761   |   4.4 |  4.53
Output  | 0          | 0          | 0          |   0.0 |  0.00
Modify  | 0.0015952  | 0.0017301  | 0.0018276  |   0.2 |  0.81
Other   |            | 0.0217     |            |       | 10.19

Nlocal:        3918.25 ave        3986 max        3841 min
Histogram: 1 0 0 0 1 0 1 0 0 1
Nghost:        2113.75 ave        2177 max        2060 min
Histogram: 1 0 0 1 1 0 0 0 0 1
Neighs:         237020 ave      244220 max      229609 min
Histogram: 1 1 0 0 0 0 0 0 1 1
FullNghs:       474041 ave      482676 max      463971 min
Histogram: 1 0 0 0 1 0 1 0 0 1

Total # of neighbors = 1896164
Ave neighs/atom = 120.98284
Neighbor list builds = 0
Dangerous builds = 0

#INDENT DISTANCE, 2.50
fix 	2 all indent 10.0 sphere 80.00 80.00 225.50 100.0 units box
fix_modify	2 energy yes
minimize	2.3e-16 1.0e-3 200000 200000
WARNING: Using 'neigh_modify every 1 delay 0 check yes' setting during minimization (src/min.cpp:187)
Per MPI rank memory allocation (min/avg/max) = 9.342 | 9.345 | 9.349 Mbytes
   Step         f_3[3]         PotEng    
       237   1.0106146e-05 -47693.646    
       238   1.0106146e-05 -47693.646    
Loop time of 0.199694 on 4 procs for 1 steps with 15673 atoms

99.5% CPU use with 4 MPI tasks x 1 OpenMP threads

Minimization stats:
  Stopping criterion = linesearch alpha is zero
  Energy initial, next-to-last, final = 
     -47693.6456591669  -47693.6456591669  -47693.6456591669
  Force two-norm initial, final = 149556.08 149558.81
  Force max component initial, final = 14936.164 14936.356
  Final line search alpha, max atom move = 3.8057576e-19 5.6844151e-15
  Iterations, force evaluations = 1 45

MPI task timing breakdown:
Section |  min time  |  avg time  |  max time  |%varavg| %total
---------------------------------------------------------------
Pair    | 0.1751     | 0.17931    | 0.18345    |   0.7 | 89.79
Neigh   | 0          | 0          | 0          |   0.0 |  0.00
Comm    | 0.0026371  | 0.0067843  | 0.010994   |   3.7 |  3.40
Output  | 0          | 0          | 0          |   0.0 |  0.00
Modify  | 0.001635   | 0.0017166  | 0.0018497  |   0.2 |  0.86
Other   |            | 0.01188    |            |       |  5.95

Nlocal:        3918.25 ave        3986 max        3841 min
Histogram: 1 0 0 0 1 0 1 0 0 1
Nghost:        2113.75 ave        2177 max        2060 min
Histogram: 1 0 0 1 1 0 0 0 0 1
Neighs:         237020 ave      244220 max      229609 min
Histogram: 1 1 0 0 0 0 0 0 1 1
FullNghs:       474041 ave      482676 max      463971 min
Histogram: 1 0 0 0 1 0 1 0 0 1

Total # of neighbors = 1896164
Ave neighs/atom = 120.98284
Neighbor list builds = 0
Dangerous builds = 0

#INDENT DISTANCE, 2.60
fix 	2 all indent 10.0 sphere 80.00 80.00 225.40 100.0 units box
fix_modify	2 energy yes
minimize	2.3e-16 1.0e-3 200000 200000
WARNING: Using 'neigh_modify every 1 delay 0 check yes' setting during minimization (src/min.cpp:187)
Per MPI rank memory allocation (min/avg/max) = 9.342 | 9.345 | 9.349 Mbytes
   Step         f_3[3]         PotEng    
       238   1.0106146e-05 -47236.41     
       239   1.0106146e-05 -47236.41     
Loop time of 0.213053 on 4 procs for 1 steps with 15673 atoms

99.4% CPU use with 4 MPI tasks x 1 OpenMP threads

Minimization stats:
  Stopping criterion = linesearch alpha is zero
  Energy initial, next-to-last, final = 
     -47236.4100125336  -47236.4100125336  -47236.4100125336
  Force two-norm initial, final = 149560.55 149563.28
  Force max component initial, final = 14936.356 14936.548
  Final line search alpha, max atom move = 3.8057086e-19 5.6844151e-15
  Iterations, force evaluations = 1 45

MPI task timing breakdown:
Section |  min time  |  avg time  |  max time  |%varavg| %total
---------------------------------------------------------------
Pair    | 0.17671    | 0.18116    | 0.18591    |   0.8 | 85.03
Neigh   | 0          | 0          | 0          |   0.0 |  0.00
Comm    | 0.0035847  | 0.0083532  | 0.012831   |   3.9 |  3.92
Output  | 0          | 0          | 0          |   0.0 |  0.00
Modify  | 0.0016569  | 0.0017484  | 0.0018876  |   0.2 |  0.82
Other   |            | 0.02179    |            |       | 10.23

Nlocal:        3918.25 ave        3986 max        3841 min
Histogram: 1 0 0 0 1 0 1 0 0 1
Nghost:        2113.75 ave        2177 max        2060 min
Histogram: 1 0 0 1 1 0 0 0 0 1
Neighs:         237020 ave      244220 max      229609 min
Histogram: 1 1 0 0 0 0 0 0 1 1
FullNghs:       474041 ave      482676 max      463971 min
Histogram: 1 0 0 0 1 0 1 0 0 1

Total # of neighbors = 1896164
Ave neighs/atom = 120.98284
Neighbor list builds = 0
Dangerous builds = 0

#INDENT DISTANCE, 2.70
fix 	2 all indent 10.0 sphere 80.00 80.00 225.30 100.0 units box
fix_modify	2 energy yes
minimize	2.3e-16 1.0e-3 200000 200000
WARNING: Using 'neigh_modify every 1 delay 0 check yes' setting during minimization (src/min.cpp:187)
Per MPI rank memory allocation (min/avg/max) = 9.342 | 9.345 | 9.349 Mbytes
   Step         f_3[3]         PotEng    
       239   1.0106146e-05 -46738.539    
       240   1.0106146e-05 -46738.539    
Loop time of 0.200278 on 4 procs for 1 steps with 15673 atoms

99.6% CPU use with 4 MPI tasks x 1 OpenMP threads

Minimization stats:
  Stopping criterion = linesearch alpha is zero
  Energy initial, next-to-last, final = 
     -46738.5393184382  -46738.5393184382  -46738.5393184382
  Force two-norm initial, final = 149565.13 149567.86
  Force max component initial, final = 14936.548 14936.741
  Final line search alpha, max atom move = 3.8056596e-19 5.6844151e-15
  Iterations, force evaluations = 1 45

MPI task timing breakdown:
Section |  min time  |  avg time  |  max time  |%varavg| %total
---------------------------------------------------------------
Pair    | 0.17703    | 0.1791     | 0.18251    |   0.5 | 89.42
Neigh   | 0          | 0          | 0          |   0.0 |  0.00
Comm    | 0.0039945  | 0.00748    | 0.0093831  |   2.4 |  3.73
Output  | 0          | 0          | 0          |   0.0 |  0.00
Modify  | 0.0016489  | 0.0017108  | 0.0017403  |   0.1 |  0.85
Other   |            | 0.01199    |            |       |  5.99

Nlocal:        3918.25 ave        3986 max        3841 min
Histogram: 1 0 0 0 1 0 1 0 0 1
Nghost:        2113.75 ave        2177 max        2060 min
Histogram: 1 0 0 1 1 0 0 0 0 1
Neighs:         237020 ave      244220 max      229609 min
Histogram: 1 1 0 0 0 0 0 0 1 1
FullNghs:       474041 ave      482676 max      463971 min
Histogram: 1 0 0 0 1 0 1 0 0 1

Total # of neighbors = 1896164
Ave neighs/atom = 120.98284
Neighbor list builds = 0
Dangerous builds = 0

#INDENT DISTANCE, 2.80
fix 	2 all indent 10.0 sphere 80.00 80.00 225.20 100.0 units box
fix_modify	2 energy yes
minimize	2.3e-16 1.0e-3 200000 200000
WARNING: Using 'neigh_modify every 1 delay 0 check yes' setting during minimization (src/min.cpp:187)
Per MPI rank memory allocation (min/avg/max) = 9.342 | 9.345 | 9.349 Mbytes
   Step         f_3[3]         PotEng    
       240   1.0106146e-05 -46197.443    
       241   1.0106146e-05 -46197.443    
Loop time of 0.207681 on 4 procs for 1 steps with 15673 atoms

99.6% CPU use with 4 MPI tasks x 1 OpenMP threads

Minimization stats:
  Stopping criterion = linesearch alpha is zero
  Energy initial, next-to-last, final = 
     -46197.4434462486  -46197.4434462486  -46197.4434462486
  Force two-norm initial, final = 149569.82 149572.55
  Force max component initial, final = 14936.741 14936.933
  Final line search alpha, max atom move = 3.8056106e-19 5.6844151e-15
  Iterations, force evaluations = 1 45

MPI task timing breakdown:
Section |  min time  |  avg time  |  max time  |%varavg| %total
---------------------------------------------------------------
Pair    | 0.17351    | 0.17756    | 0.1805     |   0.7 | 85.50
Neigh   | 0          | 0          | 0          |   0.0 |  0.00
Comm    | 0.0043556  | 0.0073131  | 0.011378   |   3.5 |  3.52
Output  | 0          | 0          | 0          |   0.0 |  0.00
Modify  | 0.0016277  | 0.0016989  | 0.0018572  |   0.2 |  0.82
Other   |            | 0.02111    |            |       | 10.16

Nlocal:        3918.25 ave        3986 max        3841 min
Histogram: 1 0 0 0 1 0 1 0 0 1
Nghost:        2113.75 ave        2177 max        2060 min
Histogram: 1 0 0 1 1 0 0 0 0 1
Neighs:         237020 ave      244220 max      229609 min
Histogram: 1 1 0 0 0 0 0 0 1 1
FullNghs:       474041 ave      482676 max      463971 min
Histogram: 1 0 0 0 1 0 1 0 0 1

Total # of neighbors = 1896164
Ave neighs/atom = 120.98284
Neighbor list builds = 0
Dangerous builds = 0

#INDENT DISTANCE, 2.90
fix 	2 all indent 10.0 sphere 80.00 80.00 225.10 100.0 units box
fix_modify	2 energy yes
minimize	2.3e-16 1.0e-3 200000 200000
WARNING: Using 'neigh_modify every 1 delay 0 check yes' setting during minimization (src/min.cpp:187)
Per MPI rank memory allocation (min/avg/max) = 9.342 | 9.345 | 9.349 Mbytes
   Step         f_3[3]         PotEng    
       241   1.0106146e-05 -45610.369    
       242   1.0106146e-05 -45610.369    
Loop time of 0.20081 on 4 procs for 1 steps with 15673 atoms

99.4% CPU use with 4 MPI tasks x 1 OpenMP threads

Minimization stats:
  Stopping criterion = linesearch alpha is zero
  Energy initial, next-to-last, final = 
     -45610.3692427837  -45610.3692427837  -45610.3692427837
  Force two-norm initial, final = 149574.63 149577.36
  Force max component initial, final = 14936.933 14937.125
  Final line search alpha, max atom move = 3.8055616e-19 5.6844151e-15
  Iterations, force evaluations = 1 45

MPI task timing breakdown:
Section |  min time  |  avg time  |  max time  |%varavg| %total
---------------------------------------------------------------
Pair    | 0.17491    | 0.17971    | 0.18448    |   0.8 | 89.49
Neigh   | 0          | 0          | 0          |   0.0 |  0.00
Comm    | 0.0026387  | 0.0074138  | 0.012237   |   4.0 |  3.69
Output  | 0          | 0          | 0          |   0.0 |  0.00
Modify  | 0.0016268  | 0.0017454  | 0.001894   |   0.3 |  0.87
Other   |            | 0.01194    |            |       |  5.95

Nlocal:        3918.25 ave        3986 max        3841 min
Histogram: 1 0 0 0 1 0 1 0 0 1
Nghost:        2113.75 ave        2177 max        2060 min
Histogram: 1 0 0 1 1 0 0 0 0 1
Neighs:         237020 ave      244220 max      229609 min
Histogram: 1 1 0 0 0 0 0 0 1 1
FullNghs:       474041 ave      482676 max      463971 min
Histogram: 1 0 0 0 1 0 1 0 0 1

Total # of neighbors = 1896164
Ave neighs/atom = 120.98284
Neighbor list builds = 0
Dangerous builds = 0

#INDENT DISTANCE, 3.00
fix 	2 all indent 10.0 sphere 80.00 80.00 225.00 100.0 units box
fix_modify	2 energy yes
minimize	2.3e-16 1.0e-3 200000 200000
WARNING: Using 'neigh_modify every 1 delay 0 check yes' setting during minimization (src/min.cpp:187)
Per MPI rank memory allocation (min/avg/max) = 9.342 | 9.345 | 9.349 Mbytes
   Step         f_3[3]         PotEng    
       242   1.0106146e-05 -44974.357    
       243   1.0106146e-05 -44974.357    
Loop time of 0.20736 on 4 procs for 1 steps with 15673 atoms

99.7% CPU use with 4 MPI tasks x 1 OpenMP threads

Minimization stats:
  Stopping criterion = linesearch alpha is zero
  Energy initial, next-to-last, final = 
     -44974.3567317667  -44974.3567317667  -44974.3567317667
  Force two-norm initial, final = 149579.58 149582.31
  Force max component initial, final = 14937.125 14937.318
  Final line search alpha, max atom move = 3.8055126e-19 5.6844151e-15
  Iterations, force evaluations = 1 45

MPI task timing breakdown:
Section |  min time  |  avg time  |  max time  |%varavg| %total
---------------------------------------------------------------
Pair    | 0.1727     | 0.17725    | 0.17989    |   0.7 | 85.48
Neigh   | 0          | 0          | 0          |   0.0 |  0.00
Comm    | 0.0042906  | 0.0069318  | 0.011474   |   3.3 |  3.34
Output  | 0          | 0          | 0          |   0.0 |  0.00
Modify  | 0.0016248  | 0.0017011  | 0.0018282  |   0.2 |  0.82
Other   |            | 0.02148    |            |       | 10.36

Nlocal:        3918.25 ave        3986 max        3841 min
Histogram: 1 0 0 0 1 0 1 0 0 1
Nghost:        2113.75 ave        2177 max        2060 min
Histogram: 1 0 0 1 1 0 0 0 0 1
Neighs:         237020 ave      244220 max      229609 min
Histogram: 1 1 0 0 0 0 0 0 1 1
FullNghs:       474041 ave      482676 max      463971 min
Histogram: 1 0 0 0 1 0 1 0 0 1

Total # of neighbors = 1896164
Ave neighs/atom = 120.98284
Neighbor list builds = 0
Dangerous builds = 0

#INDENT DISTANCE, 3.10
fix 	2 all indent 10.0 sphere 80.00 80.00 224.90 100.0 units box
fix_modify	2 energy yes
minimize	2.3e-16 1.0e-3 200000 200000
WARNING: Using 'neigh_modify every 1 delay 0 check yes' setting during minimization (src/min.cpp:187)
Per MPI rank memory allocation (min/avg/max) = 9.342 | 9.345 | 9.349 Mbytes
   Step         f_3[3]         PotEng    
       243   1.0106146e-05 -44286.234    
       244   1.0106146e-05 -44286.234    
Loop time of 0.199333 on 4 procs for 1 steps with 15673 atoms

99.6% CPU use with 4 MPI tasks x 1 OpenMP threads

Minimization stats:
  Stopping criterion = linesearch alpha is zero
  Energy initial, next-to-last, final = 
     -44286.2341795797  -44286.2341795797  -44286.2341795797
  Force two-norm initial, final = 149584.68 149587.41
  Force max component initial, final = 14937.318 14937.51
  Final line search alpha, max atom move = 3.8054636e-19 5.6844151e-15
  Iterations, force evaluations = 1 45

MPI task timing breakdown:
Section |  min time  |  avg time  |  max time  |%varavg| %total
---------------------------------------------------------------
Pair    | 0.17484    | 0.179      | 0.18323    |   0.7 | 89.80
Neigh   | 0          | 0          | 0          |   0.0 |  0.00
Comm    | 0.0026052  | 0.0068584  | 0.01104    |   3.8 |  3.44
Output  | 0          | 0          | 0          |   0.0 |  0.00
Modify  | 0.0016177  | 0.0017034  | 0.0017943  |   0.2 |  0.85
Other   |            | 0.01178    |            |       |  5.91

Nlocal:        3918.25 ave        3986 max        3841 min
Histogram: 1 0 0 0 1 0 1 0 0 1
Nghost:        2113.75 ave        2177 max        2060 min
Histogram: 1 0 0 1 1 0 0 0 0 1
Neighs:         237020 ave      244220 max      229609 min
Histogram: 1 1 0 0 0 0 0 0 1 1
FullNghs:       474041 ave      482676 max      463971 min
Histogram: 1 0 0 0 1 0 1 0 0 1

Total # of neighbors = 1896164
Ave neighs/atom = 120.98284
Neighbor list builds = 0
Dangerous builds = 0

#INDENT DISTANCE, 3.20
fix 	2 all indent 10.0 sphere 80.00 80.00 224.80 100.0 units box
fix_modify	2 energy yes
minimize	2.3e-16 1.0e-3 200000 200000
WARNING: Using 'neigh_modify every 1 delay 0 check yes' setting during minimization (src/min.cpp:187)
Per MPI rank memory allocation (min/avg/max) = 9.342 | 9.345 | 9.349 Mbytes
   Step         f_3[3]         PotEng    
       244   1.0106146e-05 -43542.638    
       245   1.0106146e-05 -43542.638    
Loop time of 0.206218 on 4 procs for 1 steps with 15673 atoms

99.6% CPU use with 4 MPI tasks x 1 OpenMP threads

Minimization stats:
  Stopping criterion = linesearch alpha is zero
  Energy initial, next-to-last, final = 
     -43542.6375482481  -43542.6375482481  -43542.6375482481
  Force two-norm initial, final = 149589.94 149592.67
  Force max component initial, final = 14937.51 14937.702
  Final line search alpha, max atom move = 3.8054146e-19 5.6844151e-15
  Iterations, force evaluations = 1 45

MPI task timing breakdown:
Section |  min time  |  avg time  |  max time  |%varavg| %total
---------------------------------------------------------------
Pair    | 0.17574    | 0.17773    | 0.17956    |   0.4 | 86.19
Neigh   | 0          | 0          | 0          |   0.0 |  0.00
Comm    | 0.0033091  | 0.0052349  | 0.0070563  |   2.1 |  2.54
Output  | 0          | 0          | 0          |   0.0 |  0.00
Modify  | 0.0016715  | 0.0017121  | 0.0017316  |   0.1 |  0.83
Other   |            | 0.02154    |            |       | 10.44

Nlocal:        3918.25 ave        3986 max        3841 min
Histogram: 1 0 0 0 1 0 1 0 0 1
Nghost:        2113.75 ave        2177 max        2060 min
Histogram: 1 0 0 1 1 0 0 0 0 1
Neighs:         237020 ave      244220 max      229609 min
Histogram: 1 1 0 0 0 0 0 0 1 1
FullNghs:       474041 ave      482676 max      463971 min
Histogram: 1 0 0 0 1 0 1 0 0 1

Total # of neighbors = 1896164
Ave neighs/atom = 120.98284
Neighbor list builds = 0
Dangerous builds = 0

#INDENT DISTANCE, 3.30
fix 	2 all indent 10.0 sphere 80.00 80.00 224.70 100.0 units box
fix_modify	2 energy yes
minimize	2.3e-16 1.0e-3 200000 200000
WARNING: Using 'neigh_modify every 1 delay 0 check yes' setting during minimization (src/min.cpp:187)
Per MPI rank memory allocation (min/avg/max) = 9.342 | 9.345 | 9.349 Mbytes
   Step         f_3[3]         PotEng    
       245   1.0106146e-05 -42739.985    
       246   1.0106146e-05 -42739.985    
Loop time of 0.20351 on 4 procs for 1 steps with 15673 atoms

99.5% CPU use with 4 MPI tasks x 1 OpenMP threads

Minimization stats:
  Stopping criterion = linesearch alpha is zero
  Energy initial, next-to-last, final = 
     -42739.9847207691  -42739.9847207691  -42739.9847207691
  Force two-norm initial, final = 149595.39 149598.12
  Force max component initial, final = 14937.702 14937.895
  Final line search alpha, max atom move = 3.8053657e-19 5.6844151e-15
  Iterations, force evaluations = 1 45

MPI task timing breakdown:
Section |  min time  |  avg time  |  max time  |%varavg| %total
---------------------------------------------------------------
Pair    | 0.17529    | 0.1801     | 0.18693    |   1.0 | 88.49
Neigh   | 0          | 0          | 0          |   0.0 |  0.00
Comm    | 0.0028053  | 0.0096802  | 0.014525   |   4.3 |  4.76
Output  | 0          | 0          | 0          |   0.0 |  0.00
Modify  | 0.0016268  | 0.0017501  | 0.0018404  |   0.2 |  0.86
Other   |            | 0.01198    |            |       |  5.89

Nlocal:        3918.25 ave        3986 max        3841 min
Histogram: 1 0 0 0 1 0 1 0 0 1
Nghost:        2113.75 ave        2177 max        2060 min
Histogram: 1 0 0 1 1 0 0 0 0 1
Neighs:         237020 ave      244220 max      229609 min
Histogram: 1 1 0 0 0 0 0 0 1 1
FullNghs:       474041 ave      482676 max      463971 min
Histogram: 1 0 0 0 1 0 1 0 0 1

Total # of neighbors = 1896164
Ave neighs/atom = 120.98284
Neighbor list builds = 0
Dangerous builds = 0

#INDENT DISTANCE, 3.40
fix 	2 all indent 10.0 sphere 80.00 80.00 224.60 100.0 units box
fix_modify	2 energy yes
minimize	2.3e-16 1.0e-3 200000 200000
WARNING: Using 'neigh_modify every 1 delay 0 check yes' setting during minimization (src/min.cpp:187)
Per MPI rank memory allocation (min/avg/max) = 9.342 | 9.345 | 9.349 Mbytes
   Step         f_3[3]         PotEng    
       246   1.0106146e-05 -41874.533    
       247   1.0106146e-05 -41874.533    
Loop time of 0.213082 on 4 procs for 1 steps with 15673 atoms

98.8% CPU use with 4 MPI tasks x 1 OpenMP threads

Minimization stats:
  Stopping criterion = linesearch alpha is zero
  Energy initial, next-to-last, final = 
     -41874.5325972617  -41874.5325972617  -41874.5325972617
  Force two-norm initial, final = 149601.05 149603.78
  Force max component initial, final = 14937.895 14938.087
  Final line search alpha, max atom move = 3.8053167e-19 5.6844151e-15
  Iterations, force evaluations = 1 45

MPI task timing breakdown:
Section |  min time  |  avg time  |  max time  |%varavg| %total
---------------------------------------------------------------
Pair    | 0.17758    | 0.18146    | 0.18536    |   0.7 | 85.16
Neigh   | 0          | 0          | 0          |   0.0 |  0.00
Comm    | 0.0035523  | 0.0074877  | 0.011399   |   3.3 |  3.51
Output  | 0          | 0          | 0          |   0.0 |  0.00
Modify  | 0.0016635  | 0.001767   | 0.001912   |   0.2 |  0.83
Other   |            | 0.02237    |            |       | 10.50

Nlocal:        3918.25 ave        3986 max        3841 min
Histogram: 1 0 0 0 1 0 1 0 0 1
Nghost:        2113.75 ave        2177 max        2060 min
Histogram: 1 0 0 1 1 0 0 0 0 1
Neighs:         237020 ave      244220 max      229609 min
Histogram: 1 1 0 0 0 0 0 0 1 1
FullNghs:       474041 ave      482676 max      463971 min
Histogram: 1 0 0 0 1 0 1 0 0 1

Total # of neighbors = 1896164
Ave neighs/atom = 120.98284
Neighbor list builds = 0
Dangerous builds = 0

#INDENT DISTANCE, 3.50
fix 	2 all indent 10.0 sphere 80.00 80.00 224.50 100.0 units box
fix_modify	2 energy yes
minimize	2.3e-16 1.0e-3 200000 200000
WARNING: Using 'neigh_modify every 1 delay 0 check yes' setting during minimization (src/min.cpp:187)
Per MPI rank memory allocation (min/avg/max) = 9.342 | 9.345 | 9.349 Mbytes
   Step         f_3[3]         PotEng    
       247   1.0106146e-05 -40942.423    
       248   1.0106146e-05 -40942.423    
Loop time of 0.218486 on 4 procs for 1 steps with 15673 atoms

96.7% CPU use with 4 MPI tasks x 1 OpenMP threads

Minimization stats:
  Stopping criterion = linesearch alpha is zero
  Energy initial, next-to-last, final = 
     -40942.4227071783  -40942.4227071783  -40942.4227071783
  Force two-norm initial, final = 149606.93 149609.66
  Force max component initial, final = 14938.087 14938.279
  Final line search alpha, max atom move = 3.8052677e-19 5.6844151e-15
  Iterations, force evaluations = 1 45

MPI task timing breakdown:
Section |  min time  |  avg time  |  max time  |%varavg| %total
---------------------------------------------------------------
Pair    | 0.18667    | 0.19178    | 0.19627    |   0.8 | 87.78
Neigh   | 0          | 0          | 0          |   0.0 |  0.00
Comm    | 0.0064325  | 0.011027   | 0.016268   |   3.6 |  5.05
Output  | 0          | 0          | 0          |   0.0 |  0.00
Modify  | 0.0018675  | 0.0020083  | 0.002159   |   0.3 |  0.92
Other   |            | 0.01367    |            |       |  6.25

Nlocal:        3918.25 ave        3986 max        3841 min
Histogram: 1 0 0 0 1 0 1 0 0 1
Nghost:        2113.75 ave        2177 max        2060 min
Histogram: 1 0 0 1 1 0 0 0 0 1
Neighs:         237020 ave      244220 max      229609 min
Histogram: 1 1 0 0 0 0 0 0 1 1
FullNghs:       474041 ave      482676 max      463971 min
Histogram: 1 0 0 0 1 0 1 0 0 1

Total # of neighbors = 1896164
Ave neighs/atom = 120.98284
Neighbor list builds = 0
Dangerous builds = 0

#INDENT DISTANCE, 3.60
fix 	2 all indent 10.0 sphere 80.00 80.00 224.40 100.0 units box
fix_modify	2 energy yes
minimize	2.3e-16 1.0e-3 200000 200000
WARNING: Using 'neigh_modify every 1 delay 0 check yes' setting during minimization (src/min.cpp:187)
Per MPI rank memory allocation (min/avg/max) = 9.342 | 9.345 | 9.349 Mbytes
   Step         f_3[3]         PotEng    
       248   1.0106146e-05 -39939.642    
       249   1.0106146e-05 -39939.642    
Loop time of 0.228314 on 4 procs for 1 steps with 15673 atoms

96.7% CPU use with 4 MPI tasks x 1 OpenMP threads

Minimization stats:
  Stopping criterion = linesearch alpha is zero
  Energy initial, next-to-last, final = 
     -39939.6415593414  -39939.6415593414  -39939.6415593414
  Force two-norm initial, final = 149613.04 149615.77
  Force max component initial, final = 14938.279 14938.471
  Final line search alpha, max atom move = 3.8052187e-19 5.6844151e-15
  Iterations, force evaluations = 1 45

MPI task timing breakdown:
Section |  min time  |  avg time  |  max time  |%varavg| %total
---------------------------------------------------------------
Pair    | 0.18784    | 0.19189    | 0.19565    |   0.6 | 84.04
Neigh   | 0          | 0          | 0          |   0.0 |  0.00
Comm    | 0.007454   | 0.011159   | 0.015199   |   2.6 |  4.89
Output  | 0          | 0          | 0          |   0.0 |  0.00
Modify  | 0.0019026  | 0.0020536  | 0.0021301  |   0.2 |  0.90
Other   |            | 0.02322    |            |       | 10.17

Nlocal:        3918.25 ave        3986 max        3841 min
Histogram: 1 0 0 0 1 0 1 0 0 1
Nghost:        2113.75 ave        2177 max        2060 min
Histogram: 1 0 0 1 1 0 0 0 0 1
Neighs:         237020 ave      244220 max      229609 min
Histogram: 1 1 0 0 0 0 0 0 1 1
FullNghs:       474041 ave      482676 max      463971 min
Histogram: 1 0 0 0 1 0 1 0 0 1

Total # of neighbors = 1896164
Ave neighs/atom = 120.98284
Neighbor list builds = 0
Dangerous builds = 0

#INDENT DISTANCE, 3.70
fix 	2 all indent 10.0 sphere 80.00 80.00 224.30 100.0 units box
fix_modify	2 energy yes
minimize	2.3e-16 1.0e-3 200000 200000
WARNING: Using 'neigh_modify every 1 delay 0 check yes' setting during minimization (src/min.cpp:187)
Per MPI rank memory allocation (min/avg/max) = 9.342 | 9.345 | 9.349 Mbytes
   Step         f_3[3]         PotEng    
       249   1.0106146e-05 -38862.049    
       250   1.0106146e-05 -38862.049    
Loop time of 0.20194 on 4 procs for 1 steps with 15673 atoms

99.6% CPU use with 4 MPI tasks x 1 OpenMP threads

Minimization stats:
  Stopping criterion = linesearch alpha is zero
  Energy initial, next-to-last, final = 
     -38862.0488315983  -38862.0488315983  -38862.0488315983
  Force two-norm initial, final = 149619.39 149622.12
  Force max component initial, final = 14938.471 14938.664
  Final line search alpha, max atom move = 3.8051697e-19 5.6844151e-15
  Iterations, force evaluations = 1 45

MPI task timing breakdown:
Section |  min time  |  avg time  |  max time  |%varavg| %total
---------------------------------------------------------------
Pair    | 0.17219    | 0.1787     | 0.18426    |   1.0 | 88.49
Neigh   | 0          | 0          | 0          |   0.0 |  0.00
Comm    | 0.0034667  | 0.0090567  | 0.015576   |   4.5 |  4.48
Output  | 0          | 0          | 0          |   0.0 |  0.00
Modify  | 0.0015583  | 0.0017022  | 0.0017771  |   0.2 |  0.84
Other   |            | 0.01249    |            |       |  6.18

Nlocal:        3918.25 ave        3986 max        3841 min
Histogram: 1 0 0 0 1 0 1 0 0 1
Nghost:        2113.75 ave        2177 max        2060 min
Histogram: 1 0 0 1 1 0 0 0 0 1
Neighs:         237020 ave      244220 max      229609 min
Histogram: 1 1 0 0 0 0 0 0 1 1
FullNghs:       474041 ave      482676 max      463971 min
Histogram: 1 0 0 0 1 0 1 0 0 1

Total # of neighbors = 1896164
Ave neighs/atom = 120.98284
Neighbor list builds = 0
Dangerous builds = 0

#INDENT DISTANCE, 3.80
fix 	2 all indent 10.0 sphere 80.00 80.00 224.20 100.0 units box
fix_modify	2 energy yes
minimize	2.3e-16 1.0e-3 200000 200000
WARNING: Using 'neigh_modify every 1 delay 0 check yes' setting during minimization (src/min.cpp:187)
Per MPI rank memory allocation (min/avg/max) = 9.342 | 9.345 | 9.349 Mbytes
   Step         f_3[3]         PotEng    
       250   1.0106146e-05 -37705.383    
       251   1.0106146e-05 -37705.383    
Loop time of 0.208533 on 4 procs for 1 steps with 15673 atoms

99.6% CPU use with 4 MPI tasks x 1 OpenMP threads

Minimization stats:
  Stopping criterion = linesearch alpha is zero
  Energy initial, next-to-last, final = 
     -37705.3831607795  -37705.3831607795  -37705.3831607795
  Force two-norm initial, final = 149626.01 149628.74
  Force max component initial, final = 14938.664 14938.856
  Final line search alpha, max atom move = 3.8051207e-19 5.6844151e-15
  Iterations, force evaluations = 1 45

MPI task timing breakdown:
Section |  min time  |  avg time  |  max time  |%varavg| %total
---------------------------------------------------------------
Pair    | 0.17401    | 0.17849    | 0.1828     |   0.7 | 85.60
Neigh   | 0          | 0          | 0          |   0.0 |  0.00
Comm    | 0.0024841  | 0.0067551  | 0.0112     |   3.8 |  3.24
Output  | 0          | 0          | 0          |   0.0 |  0.00
Modify  | 0.001612   | 0.0017045  | 0.0018479  |   0.2 |  0.82
Other   |            | 0.02158    |            |       | 10.35

Nlocal:        3918.25 ave        3986 max        3841 min
Histogram: 1 0 0 0 1 0 1 0 0 1
Nghost:        2113.75 ave        2177 max        2060 min
Histogram: 1 0 0 1 1 0 0 0 0 1
Neighs:         237020 ave      244220 max      229609 min
Histogram: 1 1 0 0 0 0 0 0 1 1
FullNghs:       474041 ave      482676 max      463971 min
Histogram: 1 0 0 0 1 0 1 0 0 1

Total # of neighbors = 1896164
Ave neighs/atom = 120.98284
Neighbor list builds = 0
Dangerous builds = 0

#INDENT DISTANCE, 3.90
fix 	2 all indent 10.0 sphere 80.00 80.00 224.10 100.0 units box
fix_modify	2 energy yes
minimize	2.3e-16 1.0e-3 200000 200000
WARNING: Using 'neigh_modify every 1 delay 0 check yes' setting during minimization (src/min.cpp:187)
Per MPI rank memory allocation (min/avg/max) = 9.342 | 9.345 | 9.349 Mbytes
[...]
Histogram: 1 0 0 1 1 0 0 0 0 1
Neighs:         237020 ave      244220 max      229609 min
Histogram: 1 1 0 0 0 0 0 0 1 1
FullNghs:       474041 ave      482676 max      463971 min
Histogram: 1 0 0 0 1 0 1 0 0 1

Total # of neighbors = 1896164
Ave neighs/atom = 120.98284
Neighbor list builds = 0
Dangerous builds = 0

#INDENT DISTANCE, 0.90
fix 	2 all indent 10.0 sphere 80.00 80.00 227.10 100.0 units box
fix_modify	2 energy yes
minimize	2.3e-16 1.0e-3 200000 200000
WARNING: Using 'neigh_modify every 1 delay 0 check yes' setting during minimization (src/min.cpp:187)
Per MPI rank memory allocation (min/avg/max) = 9.342 | 9.345 | 9.349 Mbytes
   Step         f_3[3]         PotEng    
       303   1.0106146e-05 -51066.09     
       304   1.0106146e-05 -51066.09     
Loop time of 0.237424 on 4 procs for 1 steps with 15673 atoms

95.7% CPU use with 4 MPI tasks x 1 OpenMP threads

Minimization stats:
  Stopping criterion = linesearch alpha is zero
  Energy initial, next-to-last, final = 
     -51066.0902171567  -51066.0902171567  -51066.0902171567
  Force two-norm initial, final = 149719.8 149722.54
  Force max component initial, final = 14948.858 14949.051
  Final line search alpha, max atom move = 3.8025257e-19 5.684415e-15
  Iterations, force evaluations = 1 45

MPI task timing breakdown:
Section |  min time  |  avg time  |  max time  |%varavg| %total
---------------------------------------------------------------
Pair    | 0.20005    | 0.20448    | 0.21099    |   1.0 | 86.12
Neigh   | 0          | 0          | 0          |   0.0 |  0.00
Comm    | 0.011707   | 0.018183   | 0.022743   |   3.4 |  7.66
Output  | 0          | 0          | 0          |   0.0 |  0.00
Modify  | 0.0019463  | 0.002023   | 0.0021318  |   0.2 |  0.85
Other   |            | 0.01274    |            |       |  5.37

Nlocal:        3918.25 ave        3986 max        3841 min
Histogram: 1 0 0 0 1 0 1 0 0 1
Nghost:        2113.75 ave        2177 max        2060 min
Histogram: 1 0 0 1 1 0 0 0 0 1
Neighs:         237020 ave      244220 max      229609 min
Histogram: 1 1 0 0 0 0 0 0 1 1
FullNghs:       474041 ave      482676 max      463971 min
Histogram: 1 0 0 0 1 0 1 0 0 1

Total # of neighbors = 1896164
Ave neighs/atom = 120.98284
Neighbor list builds = 0
Dangerous builds = 0

#INDENT DISTANCE, 0.80
fix 	2 all indent 10.0 sphere 80.00 80.00 227.20 100.0 units box
fix_modify	2 energy yes
minimize	2.3e-16 1.0e-3 200000 200000
WARNING: Using 'neigh_modify every 1 delay 0 check yes' setting during minimization (src/min.cpp:187)
Per MPI rank memory allocation (min/avg/max) = 9.342 | 9.345 | 9.349 Mbytes
   Step         f_3[3]         PotEng    
       304   1.0106146e-05 -51112.224    
       305   1.0106146e-05 -51112.224    
Loop time of 0.241356 on 4 procs for 1 steps with 15673 atoms

96.2% CPU use with 4 MPI tasks x 1 OpenMP threads

Minimization stats:
  Stopping criterion = linesearch alpha is zero
  Energy initial, next-to-last, final = 
      -51112.223525656   -51112.223525656   -51112.223525656
  Force two-norm initial, final = 149722.15 149724.88
  Force max component initial, final = 14949.051 14949.243
  Final line search alpha, max atom move = 3.8024768e-19 5.684415e-15
  Iterations, force evaluations = 1 45

MPI task timing breakdown:
Section |  min time  |  avg time  |  max time  |%varavg| %total
---------------------------------------------------------------
Pair    | 0.19309    | 0.19962    | 0.20719    |   1.1 | 82.71
Neigh   | 0          | 0          | 0          |   0.0 |  0.00
Comm    | 0.0088267  | 0.016424   | 0.022985   |   3.9 |  6.80
Output  | 0          | 0          | 0          |   0.0 |  0.00
Modify  | 0.0018249  | 0.0020456  | 0.0023417  |   0.4 |  0.85
Other   |            | 0.02326    |            |       |  9.64

Nlocal:        3918.25 ave        3986 max        3841 min
Histogram: 1 0 0 0 1 0 1 0 0 1
Nghost:        2113.75 ave        2177 max        2060 min
Histogram: 1 0 0 1 1 0 0 0 0 1
Neighs:         237020 ave      244220 max      229609 min
Histogram: 1 1 0 0 0 0 0 0 1 1
FullNghs:       474041 ave      482676 max      463971 min
Histogram: 1 0 0 0 1 0 1 0 0 1

Total # of neighbors = 1896164
Ave neighs/atom = 120.98284
Neighbor list builds = 0
Dangerous builds = 0

#INDENT DISTANCE, 0.70
fix 	2 all indent 10.0 sphere 80.00 80.00 227.30 100.0 units box
fix_modify	2 energy yes
minimize	2.3e-16 1.0e-3 200000 200000
WARNING: Using 'neigh_modify every 1 delay 0 check yes' setting during minimization (src/min.cpp:187)
Per MPI rank memory allocation (min/avg/max) = 9.342 | 9.345 | 9.349 Mbytes
   Step         f_3[3]         PotEng    
       305   1.0106146e-05 -51148.138    
       306   1.0106146e-05 -51148.138    
Loop time of 0.204171 on 4 procs for 1 steps with 15673 atoms

98.2% CPU use with 4 MPI tasks x 1 OpenMP threads

Minimization stats:
  Stopping criterion = linesearch alpha is zero
  Energy initial, next-to-last, final = 
     -51148.1377086208  -51148.1377086208  -51148.1377086208
  Force two-norm initial, final = 149724.56 149727.29
  Force max component initial, final = 14949.243 14949.436
  Final line search alpha, max atom move = 3.8024279e-19 5.684415e-15
  Iterations, force evaluations = 1 45

MPI task timing breakdown:
Section |  min time  |  avg time  |  max time  |%varavg| %total
---------------------------------------------------------------
Pair    | 0.1809     | 0.18353    | 0.18642    |   0.5 | 89.89
Neigh   | 0          | 0          | 0          |   0.0 |  0.00
Comm    | 0.0036452  | 0.0065582  | 0.0092047  |   2.6 |  3.21
Output  | 0          | 0          | 0          |   0.0 |  0.00
Modify  | 0.0017475  | 0.0018193  | 0.0019154  |   0.1 |  0.89
Other   |            | 0.01227    |            |       |  6.01

Nlocal:        3918.25 ave        3986 max        3841 min
Histogram: 1 0 0 0 1 0 1 0 0 1
Nghost:        2113.75 ave        2177 max        2060 min
Histogram: 1 0 0 1 1 0 0 0 0 1
Neighs:         237020 ave      244220 max      229609 min
Histogram: 1 1 0 0 0 0 0 0 1 1
FullNghs:       474041 ave      482676 max      463971 min
Histogram: 1 0 0 0 1 0 1 0 0 1

Total # of neighbors = 1896164
Ave neighs/atom = 120.98284
Neighbor list builds = 0
Dangerous builds = 0

#INDENT DISTANCE, 0.60
fix 	2 all indent 10.0 sphere 80.00 80.00 227.40 100.0 units box
fix_modify	2 energy yes
minimize	2.3e-16 1.0e-3 200000 200000
WARNING: Using 'neigh_modify every 1 delay 0 check yes' setting during minimization (src/min.cpp:187)
Per MPI rank memory allocation (min/avg/max) = 9.342 | 9.345 | 9.349 Mbytes
   Step         f_3[3]         PotEng    
       306   1.0106146e-05 -51175.352    
       307   1.0106146e-05 -51175.352    
Loop time of 0.217772 on 4 procs for 1 steps with 15673 atoms

98.2% CPU use with 4 MPI tasks x 1 OpenMP threads

Minimization stats:
  Stopping criterion = linesearch alpha is zero
  Energy initial, next-to-last, final = 
     -51175.3523914717  -51175.3523914717  -51175.3523914717
  Force two-norm initial, final = 149727.04 149729.77
  Force max component initial, final = 14949.436 14949.628
  Final line search alpha, max atom move = 3.8023789e-19 5.684415e-15
  Iterations, force evaluations = 1 45

MPI task timing breakdown:
Section |  min time  |  avg time  |  max time  |%varavg| %total
---------------------------------------------------------------
Pair    | 0.17881    | 0.18255    | 0.18707    |   0.7 | 83.83
Neigh   | 0          | 0          | 0          |   0.0 |  0.00
Comm    | 0.0044977  | 0.0089812  | 0.012684   |   3.3 |  4.12
Output  | 0          | 0          | 0          |   0.0 |  0.00
Modify  | 0.0017397  | 0.0018913  | 0.0019616  |   0.2 |  0.87
Other   |            | 0.02435    |            |       | 11.18

Nlocal:        3918.25 ave        3986 max        3841 min
Histogram: 1 0 0 0 1 0 1 0 0 1
Nghost:        2113.75 ave        2177 max        2060 min
Histogram: 1 0 0 1 1 0 0 0 0 1
Neighs:         237020 ave      244220 max      229609 min
Histogram: 1 1 0 0 0 0 0 0 1 1
FullNghs:       474041 ave      482676 max      463971 min
Histogram: 1 0 0 0 1 0 1 0 0 1

Total # of neighbors = 1896164
Ave neighs/atom = 120.98284
Neighbor list builds = 0
Dangerous builds = 0

#INDENT DISTANCE, 0.50
fix 	2 all indent 10.0 sphere 80.00 80.00 227.50 100.0 units box
fix_modify	2 energy yes
minimize	2.3e-16 1.0e-3 200000 200000
WARNING: Using 'neigh_modify every 1 delay 0 check yes' setting during minimization (src/min.cpp:187)
Per MPI rank memory allocation (min/avg/max) = 9.342 | 9.345 | 9.349 Mbytes
   Step         f_3[3]         PotEng    
       307   1.0106146e-05 -51195.367    
       308   1.0106146e-05 -51195.367    
Loop time of 0.234262 on 4 procs for 1 steps with 15673 atoms

95.9% CPU use with 4 MPI tasks x 1 OpenMP threads

Minimization stats:
  Stopping criterion = linesearch alpha is zero
  Energy initial, next-to-last, final = 
     -51195.3667927847  -51195.3667927847  -51195.3667927847
  Force two-norm initial, final = 149729.59 149732.32
  Force max component initial, final = 14949.628 14949.82
  Final line search alpha, max atom move = 3.80233e-19 5.684415e-15
  Iterations, force evaluations = 1 45

MPI task timing breakdown:
Section |  min time  |  avg time  |  max time  |%varavg| %total
---------------------------------------------------------------
Pair    | 0.19771    | 0.20141    | 0.20361    |   0.5 | 85.98
Neigh   | 0          | 0          | 0          |   0.0 |  0.00
Comm    | 0.016367   | 0.018286   | 0.022096   |   1.7 |  7.81
Output  | 0          | 0          | 0          |   0.0 |  0.00
Modify  | 0.0019215  | 0.0019814  | 0.0020457  |   0.1 |  0.85
Other   |            | 0.01258    |            |       |  5.37

Nlocal:        3918.25 ave        3986 max        3841 min
Histogram: 1 0 0 0 1 0 1 0 0 1
Nghost:        2113.75 ave        2177 max        2060 min
Histogram: 1 0 0 1 1 0 0 0 0 1
Neighs:         237020 ave      244220 max      229609 min
Histogram: 1 1 0 0 0 0 0 0 1 1
FullNghs:       474041 ave      482676 max      463971 min
Histogram: 1 0 0 0 1 0 1 0 0 1

Total # of neighbors = 1896164
Ave neighs/atom = 120.98284
Neighbor list builds = 0
Dangerous builds = 0

#INDENT DISTANCE, 0.40
fix 	2 all indent 10.0 sphere 80.00 80.00 227.60 100.0 units box
fix_modify	2 energy yes
minimize	2.3e-16 1.0e-3 200000 200000
WARNING: Using 'neigh_modify every 1 delay 0 check yes' setting during minimization (src/min.cpp:187)
Per MPI rank memory allocation (min/avg/max) = 9.342 | 9.345 | 9.349 Mbytes
   Step         f_3[3]         PotEng    
       308   1.0106146e-05 -51209.566    
       309   1.0106146e-05 -51209.566    
Loop time of 0.214997 on 4 procs for 1 steps with 15673 atoms

98.5% CPU use with 4 MPI tasks x 1 OpenMP threads

Minimization stats:
  Stopping criterion = linesearch alpha is zero
  Energy initial, next-to-last, final = 
      -51209.566480276   -51209.566480276   -51209.566480276
  Force two-norm initial, final = 149732.19 149734.93
  Force max component initial, final = 14949.82 14950.013
  Final line search alpha, max atom move = 3.8022811e-19 5.684415e-15
  Iterations, force evaluations = 1 45

MPI task timing breakdown:
Section |  min time  |  avg time  |  max time  |%varavg| %total
---------------------------------------------------------------
Pair    | 0.17788    | 0.18206    | 0.18662    |   0.7 | 84.68
Neigh   | 0          | 0          | 0          |   0.0 |  0.00
Comm    | 0.0039953  | 0.0085267  | 0.012693   |   3.4 |  3.97
Output  | 0          | 0          | 0          |   0.0 |  0.00
Modify  | 0.001736   | 0.0018086  | 0.0019021  |   0.2 |  0.84
Other   |            | 0.0226     |            |       | 10.51

Nlocal:        3918.25 ave        3986 max        3841 min
Histogram: 1 0 0 0 1 0 1 0 0 1
Nghost:        2113.75 ave        2177 max        2060 min
Histogram: 1 0 0 1 1 0 0 0 0 1
Neighs:         237020 ave      244220 max      229609 min
Histogram: 1 1 0 0 0 0 0 0 1 1
FullNghs:       474041 ave      482676 max      463971 min
Histogram: 1 0 0 0 1 0 1 0 0 1

Total # of neighbors = 1896164
Ave neighs/atom = 120.98284
Neighbor list builds = 0
Dangerous builds = 0

#INDENT DISTANCE, 0.30
fix 	2 all indent 10.0 sphere 80.00 80.00 227.70 100.0 units box
fix_modify	2 energy yes
minimize	2.3e-16 1.0e-3 200000 200000
WARNING: Using 'neigh_modify every 1 delay 0 check yes' setting during minimization (src/min.cpp:187)
Per MPI rank memory allocation (min/avg/max) = 9.342 | 9.345 | 9.349 Mbytes
   Step         f_3[3]         PotEng    
       309   1.0106146e-05 -51219.182    
       310   1.0106146e-05 -51219.182    
Loop time of 0.203884 on 4 procs for 1 steps with 15673 atoms

98.5% CPU use with 4 MPI tasks x 1 OpenMP threads

Minimization stats:
  Stopping criterion = linesearch alpha is zero
  Energy initial, next-to-last, final = 
     -51219.1821949548  -51219.1821949548  -51219.1821949548
  Force two-norm initial, final = 149734.83 149737.57
  Force max component initial, final = 14950.013 14950.205
  Final line search alpha, max atom move = 3.8022321e-19 5.684415e-15
  Iterations, force evaluations = 1 45

MPI task timing breakdown:
Section |  min time  |  avg time  |  max time  |%varavg| %total
---------------------------------------------------------------
Pair    | 0.17874    | 0.18178    | 0.18517    |   0.6 | 89.16
Neigh   | 0          | 0          | 0          |   0.0 |  0.00
Comm    | 0.0042149  | 0.007659   | 0.01073    |   2.8 |  3.76
Output  | 0          | 0          | 0          |   0.0 |  0.00
Modify  | 0.0017365  | 0.0018035  | 0.0018818  |   0.1 |  0.88
Other   |            | 0.01265    |            |       |  6.20

Nlocal:        3918.25 ave        3986 max        3841 min
Histogram: 1 0 0 0 1 0 1 0 0 1
Nghost:        2113.75 ave        2177 max        2060 min
Histogram: 1 0 0 1 1 0 0 0 0 1
Neighs:         237020 ave      244220 max      229609 min
Histogram: 1 1 0 0 0 0 0 0 1 1
FullNghs:       474041 ave      482676 max      463971 min
Histogram: 1 0 0 0 1 0 1 0 0 1

Total # of neighbors = 1896164
Ave neighs/atom = 120.98284
Neighbor list builds = 0
Dangerous builds = 0

#INDENT DISTANCE, 0.20
fix 	2 all indent 10.0 sphere 80.00 80.00 227.80 100.0 units box
fix_modify	2 energy yes
minimize	2.3e-16 1.0e-3 200000 200000
WARNING: Using 'neigh_modify every 1 delay 0 check yes' setting during minimization (src/min.cpp:187)
Per MPI rank memory allocation (min/avg/max) = 9.342 | 9.345 | 9.349 Mbytes
   Step         f_3[3]         PotEng    
       310   1.0106146e-05 -51225.314    
       311   1.0106146e-05 -51225.314    
Loop time of 0.246248 on 4 procs for 1 steps with 15673 atoms

95.6% CPU use with 4 MPI tasks x 1 OpenMP threads

Minimization stats:
  Stopping criterion = linesearch alpha is zero
  Energy initial, next-to-last, final = 
     -51225.3137494498  -51225.3137494498  -51225.3137494498
  Force two-norm initial, final = 149737.51 149740.24
  Force max component initial, final = 14950.205 14950.398
  Final line search alpha, max atom move = 3.8021832e-19 5.684415e-15
  Iterations, force evaluations = 1 45

MPI task timing breakdown:
Section |  min time  |  avg time  |  max time  |%varavg| %total
---------------------------------------------------------------
Pair    | 0.19569    | 0.20153    | 0.2073     |   0.9 | 81.84
Neigh   | 0          | 0          | 0          |   0.0 |  0.00
Comm    | 0.010608   | 0.016399   | 0.022328   |   3.2 |  6.66
Output  | 0          | 0          | 0          |   0.0 |  0.00
Modify  | 0.0018752  | 0.0021209  | 0.0023697  |   0.4 |  0.86
Other   |            | 0.0262     |            |       | 10.64

Nlocal:        3918.25 ave        3986 max        3841 min
Histogram: 1 0 0 0 1 0 1 0 0 1
Nghost:        2113.75 ave        2177 max        2060 min
Histogram: 1 0 0 1 1 0 0 0 0 1
Neighs:         237020 ave      244220 max      229609 min
Histogram: 1 1 0 0 0 0 0 0 1 1
FullNghs:       474041 ave      482676 max      463971 min
Histogram: 1 0 0 0 1 0 1 0 0 1

Total # of neighbors = 1896164
Ave neighs/atom = 120.98284
Neighbor list builds = 0
Dangerous builds = 0

#INDENT DISTANCE, 0.10
fix 	2 all indent 10.0 sphere 80.00 80.00 227.90 100.0 units box
fix_modify	2 energy yes
minimize	2.3e-16 1.0e-3 200000 200000
WARNING: Using 'neigh_modify every 1 delay 0 check yes' setting during minimization (src/min.cpp:187)
Per MPI rank memory allocation (min/avg/max) = 9.342 | 9.345 | 9.349 Mbytes
   Step         f_3[3]         PotEng    
       311   1.0106146e-05 -51228.916    
       312   1.0106146e-05 -51228.916    
Loop time of 0.23926 on 4 procs for 1 steps with 15673 atoms

94.7% CPU use with 4 MPI tasks x 1 OpenMP threads

Minimization stats:
  Stopping criterion = linesearch alpha is zero
  Energy initial, next-to-last, final = 
     -51228.9163055833  -51228.9163055833  -51228.9163055833
  Force two-norm initial, final = 149740.21 149742.94
  Force max component initial, final = 14950.398 14950.59
  Final line search alpha, max atom move = 3.8021343e-19 5.684415e-15
  Iterations, force evaluations = 1 45

MPI task timing breakdown:
Section |  min time  |  avg time  |  max time  |%varavg| %total
---------------------------------------------------------------
Pair    | 0.19722    | 0.20488    | 0.21686    |   1.6 | 85.63
Neigh   | 0          | 0          | 0          |   0.0 |  0.00
Comm    | 0.0073217  | 0.019269   | 0.026905   |   5.2 |  8.05
Output  | 0          | 0          | 0          |   0.0 |  0.00
Modify  | 0.0018881  | 0.0020175  | 0.0021501  |   0.3 |  0.84
Other   |            | 0.01309    |            |       |  5.47

Nlocal:        3918.25 ave        3986 max        3841 min
Histogram: 1 0 0 0 1 0 1 0 0 1
Nghost:        2113.75 ave        2177 max        2060 min
Histogram: 1 0 0 1 1 0 0 0 0 1
Neighs:         237020 ave      244220 max      229609 min
Histogram: 1 1 0 0 0 0 0 0 1 1
FullNghs:       474041 ave      482676 max      463971 min
Histogram: 1 0 0 0 1 0 1 0 0 1

Total # of neighbors = 1896164
Ave neighs/atom = 120.98284
Neighbor list builds = 0
Dangerous builds = 0

#INDENT DISTANCE, -0.00
fix 	2 all indent 10.0 sphere 80.00 80.00 228.00 100.0 units box
fix_modify	2 energy yes
minimize	2.3e-16 1.0e-3 200000 200000
Per MPI rank memory allocation (min/avg/max) = 9.342 | 9.345 | 9.349 Mbytes
   Step         f_3[3]         PotEng    
WARNING: Too many warnings: 101 vs 100. All future warnings will be suppressed (src/thermo.cpp:465)
       312   1.0106146e-05 -51230.798    
       313   1.0106146e-05 -51230.798    
Loop time of 0.21581 on 4 procs for 1 steps with 15673 atoms

98.5% CPU use with 4 MPI tasks x 1 OpenMP threads

Minimization stats:
  Stopping criterion = linesearch alpha is zero
  Energy initial, next-to-last, final = 
     -51230.7976370931  -51230.7976370931  -51230.7976370931
  Force two-norm initial, final = 149742.92 149745.65
  Force max component initial, final = 14950.59 14950.782
  Final line search alpha, max atom move = 3.8020854e-19 5.684415e-15
  Iterations, force evaluations = 1 45

MPI task timing breakdown:
Section |  min time  |  avg time  |  max time  |%varavg| %total
---------------------------------------------------------------
Pair    | 0.17788    | 0.18218    | 0.18628    |   0.7 | 84.42
Neigh   | 0          | 0          | 0          |   0.0 |  0.00
Comm    | 0.0049798  | 0.0090524  | 0.013318   |   3.1 |  4.19
Output  | 0          | 0          | 0          |   0.0 |  0.00
Modify  | 0.0017837  | 0.0018704  | 0.0019884  |   0.2 |  0.87
Other   |            | 0.02271    |            |       | 10.52

Nlocal:        3918.25 ave        3986 max        3841 min
Histogram: 1 0 0 0 1 0 1 0 0 1
Nghost:        2113.75 ave        2177 max        2060 min
Histogram: 1 0 0 1 1 0 0 0 0 1
Neighs:         237020 ave      244220 max      229609 min
Histogram: 1 1 0 0 0 0 0 0 1 1
FullNghs:       474041 ave      482676 max      463971 min
Histogram: 1 0 0 0 1 0 1 0 0 1

Total # of neighbors = 1896164
Ave neighs/atom = 120.98284
Neighbor list builds = 0
Dangerous builds = 0




Total wall time: 0:00:23
