ITEM: TIMESTEP
36000000
ITEM: NUMBER OF ATOMS
256
ITEM: BOX BOUNDS pp pp pp
0.0000000000000000e+00 1.6184000000000001e+01
0.0000000000000000e+00 1.6184000000000001e+01
0.0000000000000000e+00 1.6184000000000001e+01
ITEM: ATOMS id type x y z vx vy vz
1 1 11.6821 2.78374 9.87811 0.857704 -3.15187 -4.14011
2 1 13.7051 4.80674 9.87811 0.857704 -3.15187 -4.1401
3 1 11.6821 4.80674 11.9011 0.857703 -3.15188 -4.14011
4 1 13.7051 2.78374 11.9011 0.857697 -3.15188 -4.1401
5 1 15.7281 2.78374 9.87811 0.8577 -3.15187 -4.14011
6 1 1.5671 4.80674 9.8781 0.857698 -3.15187 -4.1401
7 1 15.7281 4.80674 11.9011 0.8577 -3.15188 -4.1401
8 1 1.5671 2.78374 11.9011 0.857699 -3.15188 -4.1401
9 1 3.5901 2.78374 9.8781 0.8577 -3.15189 -4.14011
10 1 5.6131 4.80674 9.87811 0.857694 -3.15187 -4.14012
11 1 3.5901 4.80674 11.9011 0.857703 -3.15188 -4.14011
12 1 5.6131 2.78374 11.9011 0.857704 -3.15188 -4.14011
13 1 7.6361 2.78374 9.87811 0.857695 -3.15187 -4.14011
14 1 9.6591 4.80674 9.87811 0.857699 -3.15188 -4.14011
15 1 7.6361 4.80674 11.9011 0.857699 -3.15188 -4.1401
16 1 9.6591 2.78374 11.9011 0.857703 -3.15188 -4.14011
17 1 11.6821 6.82974 9.87811 0.857701 -3.15188 -4.1401
18 1 13.7051 8.85274 9.87811 0.857704 -3.15187 -4.1401
19 1 11.6821 8.85274 11.9011 0.857705 -3.15188 -4.14011
20 1 13.7051 6.82974 11.9011 0.857696 -3.15187 -4.1401
21 1 15.7281 6.82974 9.87811 0.857701 -3.15187 -4.1401
22 1 1.5671 8.85274 9.87811 0.857698 -3.15188 -4.1401
23 1 15.7281 8.85274 11.9011 0.857699 -3.15187 -4.1401
24 1 1.5671 6.82974 11.9011 0.857707 -3.15188 -4.1401
25 1 3.5901 6.82974 9.87811 0.857698 -3.15188 -4.1401
26 1 5.6131 8.85274 9.87811 0.857698 -3.15188 -4.14011
27 1 3.5901 8.85274 11.9011 0.857702 -3.15188 -4.1401
28 1 5.6131 6.82974 11.9011 0.857698 -3.15187 -4.14011
29 1 7.6361 6.82974 9.87811 0.857704 -3.15188 -4.14011
30 1 9.6591 8.85274 9.87811 0.857698 -3.15187 -4.14011
31 1 7.6361 8.85274 11.9011 0.857692 -3.15188 -4.1401
32 1 9.6591 6.82974 11.9011 0.857698 -3.15187 -4.14011
33 1 11.6821 10.8757 9.87811 0.857701 -3.15188 -4.1401
34 1 13.7051 12.8987 9.87811 0.857702 -3.15188 -4.1401
35 1 11.6821 12.8987 11.9011 0.857703 -3.15188 -4.1401
36 1 13.7051 10.8757 11.9011 0.857699 -3.15188 -4.1401
37 1 15.7281 10.8757 9.87811 0.857701 -3.15188 -4.1401
38 1 1.5671 12.8987 9.87811 0.857701 -3.15188 -4.1401
39 1 15.7281 12.8987 11.9011 0.857696 -3.15188 -4.1401
40 1 1.5671 10.8757 11.9011 0.8577 -3.15187 -4.1401
41 1 3.5901 10.8757 9.87811 0.85769 -3.15187 -4.14011
42 1 5.6131 12.8987 9.87811 0.8577 -3.15188 -4.14011
43 1 3.5901 12.8987 11.9011 0.857698 -3.15187 -4.14011
44 1 5.6131 10.8757 11.9011 0.857695 -3.15188 -4.1401
45 1 7.6361 10.8757 9.87811 0.857698 -3.15188 -4.14011
46 1 9.6591 12.8987 9.8781 0.857694 -3.15188 -4.14011
47 1 7.6361 12.8987 11.9011 0.857698 -3.15187 -4.14011
48 1 9.6591 10.8757 11.9011 0.8577 -3.15188 -4.14011
49 1 11.6821 14.9217 9.87811 0.857704 -3.15188 -4.1401
50 1 13.7051 0.760737 9.87811 0.857705 -3.15188 -4.1401
51 1 11.6821 0.760737 11.9011 0.857697 -3.15187 -4.1401
52 1 13.7051 14.9217 11.9011 0.857703 -3.15188 -4.14011
53 1 15.7281 14.9217 9.87811 0.857701 -3.15188 -4.1401
54 1 1.5671 0.760737 9.87811 0.857702 -3.15188 -4.14011
55 1 15.7281 0.760737 11.9011 0.857704 -3.15188 -4.14011
56 1 1.5671 14.9217 11.9011 0.857698 -3.15187 -4.1401
57 1 3.5901 14.9217 9.87811 0.857697 -3.15189 -4.14011
58 1 5.6131 0.760737 9.87811 0.857699 -3.15188 -4.14011
59 1 3.5901 0.760737 11.9011 0.857703 -3.15187 -4.14011
60 1 5.6131 14.9217 11.9011 0.8577 -3.15188 -4.14011
61 1 7.6361 14.9217 9.87811 0.857697 -3.15188 -4.14011
62 1 9.6591 0.760737 9.87811 0.857713 -3.15188 -4.14011
63 1 7.6361 0.760737 11.9011 0.857706 -3.15188 -4.14011
64 1 9.6591 14.9217 11.9011 0.8577 -3.15187 -4.14011
65 1 11.6821 2.78374 13.9241 0.8577 -3.15188 -4.14011
66 1 13.7051 4.80674 13.9241 0.857704 -3.15188 -4.1401
67 1 11.6821 4.80674 15.9471 0.857701 -3.15188 -4.1401
68 1 13.7051 2.78374 15.9471 0.857701 -3.15188 -4.14011
69 1 15.7281 2.78374 13.9241 0.857697 -3.15188 -4.1401
70 1 1.5671 4.80674 13.9241 0.857701 -3.15187 -4.1401
71 1 15.7281 4.80674 15.9471 0.857707 -3.15188 -4.14011
72 1 1.5671 2.78374 15.9471 0.857699 -3.15187 -4.1401
73 1 3.5901 2.78374 13.9241 0.857695 -3.15187 -4.14012
74 1 5.6131 4.80674 13.9241 0.8577 -3.15187 -4.1401
75 1 3.5901 4.80674 15.9471 0.857702 -3.15187 -4.14011
76 1 5.6131 2.78374 15.9471 0.857699 -3.15187 -4.14011
77 1 7.6361 2.78374 13.9241 0.857699 -3.15188 -4.14011
78 1 9.6591 4.80674 13.9241 0.8577 -3.15187 -4.1401
79 1 7.6361 4.80674 15.9471 0.857705 -3.15187 -4.14011
80 1 9.6591 2.78374 15.9471 0.857703 -3.15187 -4.1401
81 1 11.6821 6.82974 13.9241 0.857697 -3.15188 -4.1401
82 1 13.7051 8.85274 13.9241 0.857699 -3.15187 -4.1401
83 1 11.6821 8.85274 15.9471 0.857699 -3.15188 -4.1401
84 1 13.7051 6.82974 15.9471 0.857698 -3.15188 -4.14011
85 1 15.7281 6.82974 13.9241 0.857692 -3.15188 -4.1401
86 1 1.5671 8.85274 13.9241 0.857704 -3.15188 -4.1401
87 1 15.7281 8.85274 15.9471 0.857692 -3.15187 -4.1401
88 1 1.5671 6.82974 15.9471 0.857696 -3.15187 -4.14011
89 1 3.5901 6.82974 13.9241 0.857703 -3.15188 -4.1401
90 1 5.6131 8.85274 13.9241 0.857697 -3.15187 -4.14012
91 1 3.5901 8.85274 15.9471 0.857702 -3.15188 -4.1401
92 1 5.6131 6.82974 15.9471 0.8577 -3.15188 -4.14011
93 1 7.6361 6.82974 13.9241 0.857698 -3.15187 -4.1401
94 1 9.6591 8.85274 13.9241 0.857704 -3.15188 -4.14011
95 1 7.6361 8.85274 15.9471 0.857709 -3.15188 -4.14011
96 1 9.6591 6.82974 15.9471 0.857701 -3.15187 -4.14011
97 1 11.6821 10.8757 13.9241 0.857704 -3.15188 -4.1401
98 1 13.7051 12.8987 13.9241 0.8577 -3.15188 -4.14011
99 1 11.6821 12.8987 15.9471 0.857696 -3.15188 -4.14011
100 1 13.7051 10.8757 15.9471 0.857704 -3.15187 -4.14011
101 1 15.7281 10.8757 13.9241 0.857699 -3.15188 -4.1401
102 1 1.5671 12.8987 13.9241 0.857707 -3.15188 -4.14011
103 1 15.7281 12.8987 15.9471 0.857707 -3.15188 -4.1401
104 1 1.5671 10.8757 15.9471 0.857704 -3.15187 -4.1401
105 1 3.5901 10.8757 13.9241 0.857705 -3.15188 -4.1401
106 1 5.6131 12.8987 13.9241 0.857696 -3.15188 -4.14011
107 1 3.5901 12.8987 15.9471 0.857697 -3.15188 -4.1401
108 1 5.6131 10.8757 15.9471 0.857698 -3.15188 -4.1401
109 1 7.6361 10.8757 13.9241 0.857702 -3.15188 -4.14011
110 1 9.6591 12.8987 13.9241 0.857703 -3.15188 -4.1401
111 1 7.6361 12.8987 15.9471 0.857694 -3.15187 -4.1401
112 1 9.6591 10.8757 15.9471 0.857698 -3.15188 -4.1401
113 1 11.6821 14.9217 13.9241 0.857705 -3.15187 -4.1401
114 1 13.7051 0.760737 13.9241 0.857699 -3.15187 -4.14011
115 1 11.6821 0.760737 15.9471 0.857705 -3.15187 -4.14011
116 1 13.7051 14.9217 15.9471 0.857701 -3.15187 -4.1401
117 1 15.7281 14.9217 13.9241 0.857707 -3.15188 -4.1401
118 1 1.5671 0.760737 13.9241 0.857708 -3.15188 -4.1401
119 1 15.7281 0.760737 15.9471 0.857699 -3.15188 -4.1401
120 1 1.5671 14.9217 15.9471 0.857701 -3.15188 -4.1401
121 1 3.5901 14.9217 13.9241 0.857694 -3.15187 -4.1401
122 1 5.6131 0.760737 13.9241 0.857701 -3.15188 -4.14011
123 1 3.5901 0.760737 15.9471 0.857697 -3.15188 -4.1401
124 1 5.6131 14.9217 15.9471 0.8577 -3.15188 -4.14011
125 1 7.6361 14.9217 13.9241 0.857698 -3.15188 -4.14011
126 1 9.6591 0.760737 13.9241 0.857704 -3.15188 -4.14011
127 1 7.6361 0.760737 15.9471 0.857698 -3.15188 -4.14012
128 1 9.6591 14.9217 15.9471 0.8577 -3.15188 -4.14011
129 1 11.6821 2.78374 1.78611 0.85771 -3.15188 -4.1401
130 1 13.7051 4.80674 1.78611 0.857702 -3.15187 -4.1401
131 1 11.6821 4.80674 3.8091 0.857708 -3.15188 -4.14011
132 1 13.7051 2.78374 3.80911 0.857706 -3.15187 -4.14011
133 1 15.7281 2.78374 1.78611 0.8577 -3.15187 -4.14011
134 1 1.5671 4.80674 1.78611 0.857698 -3.15187 -4.14011
135 1 15.7281 4.80674 3.80911 0.857699 -3.15187 -4.1401
136 1 1.5671 2.78374 3.80911 0.857697 -3.15187 -4.14011
137 1 3.5901 2.78374 1.78611 0.857699 -3.15187 -4.14011
138 1 5.6131 4.80674 1.78611 0.857709 -3.15187 -4.14011
139 1 3.5901 4.80674 3.80911 0.857702 -3.15187 -4.1401
140 1 5.6131 2.78374 3.80911 0.8577 -3.15187 -4.14011
141 1 7.6361 2.78374 1.78611 0.857707 -3.15187 -4.14011
142 1 9.6591 4.80674 1.78611 0.857702 -3.15188 -4.14011
143 1 7.6361 4.80674 3.80911 0.8577 -3.15187 -4.14011
144 1 9.6591 2.78374 3.80911 0.857702 -3.15187 -4.14012
145 1 11.6821 6.82974 1.78611 0.857701 -3.15187 -4.1401
146 1 13.7051 8.85274 1.78611 0.857702 -3.15188 -4.1401
147 1 11.6821 8.85274 3.80911 0.857699 -3.15187 -4.1401
148 1 13.7051 6.82974 3.80911 0.85771 -3.15187 -4.1401
149 1 15.7281 6.82974 1.78611 0.857694 -3.15187 -4.1401
150 1 1.5671 8.85274 1.78611 0.857703 -3.15188 -4.14011
151 1 15.7281 8.85274 3.80911 0.857694 -3.15187 -4.1401
152 1 1.5671 6.82974 3.80911 0.8577 -3.15187 -4.14011
153 1 3.5901 6.82974 1.78611 0.857697 -3.15187 -4.14011
154 1 5.6131 8.85274 1.78611 0.857704 -3.15187 -4.1401
155 1 3.5901 8.85274 3.80911 0.857697 -3.15188 -4.1401
156 1 5.6131 6.82974 3.80911 0.857701 -3.15187 -4.14011
157 1 7.6361 6.82974 1.78611 0.857704 -3.15187 -4.14011
158 1 9.6591 8.85274 1.78611 0.857698 -3.15187 -4.1401
159 1 7.6361 8.85274 3.80911 0.857696 -3.15187 -4.1401
160 1 9.6591 6.82974 3.80911 0.857699 -3.15187 -4.14011
161 1 11.6821 10.8757 1.78611 0.857707 -3.15187 -4.1401
162 1 13.7051 12.8987 1.78611 0.857696 -3.15188 -4.1401
163 1 11.6821 12.8987 3.80911 0.857703 -3.15188 -4.14011
164 1 13.7051 10.8757 3.80911 0.857699 -3.15187 -4.14011
165 1 15.7281 10.8757 1.78611 0.857702 -3.15187 -4.14011
166 1 1.5671 12.8987 1.78611 0.857705 -3.15188 -4.14011
167 1 15.7281 12.8987 3.80911 0.857701 -3.15187 -4.14011
168 1 1.5671 10.8757 3.80911 0.857702 -3.15188 -4.14011
169 1 3.5901 10.8757 1.78611 0.857691 -3.15187 -4.14011
170 1 5.6131 12.8987 1.78611 0.857691 -3.15188 -4.1401
171 1 3.5901 12.8987 3.8091 0.857703 -3.15188 -4.14011
172 1 5.6131 10.8757 3.80911 0.857699 -3.15187 -4.1401
173 1 7.6361 10.8757 1.78611 0.857705 -3.15187 -4.1401
174 1 9.6591 12.8987 1.78611 0.857697 -3.15188 -4.14011
175 1 7.6361 12.8987 3.8091 0.857701 -3.15187 -4.1401
176 1 9.6591 10.8757 3.80911 0.857698 -3.15187 -4.1401
177 1 11.6821 14.9217 1.78611 0.857704 -3.15188 -4.1401
178 1 13.7051 0.760737 1.78611 0.857704 -3.15188 -4.14011
179 1 11.6821 0.760737 3.80911 0.857704 -3.15187 -4.14011
180 1 13.7051 14.9217 3.80911 0.857698 -3.15187 -4.14011
181 1 15.7281 14.9217 1.7861 0.857703 -3.15187 -4.14011
182 1 1.5671 0.760737 1.78611 0.857701 -3.15188 -4.14011
183 1 15.7281 0.760737 3.80911 0.857705 -3.15188 -4.14011
184 1 1.5671 14.9217 3.8091 0.85771 -3.15187 -4.1401
185 1 3.5901 14.9217 1.78611 0.857703 -3.15187 -4.14011
186 1 5.6131 0.760737 1.78611 0.857705 -3.15188 -4.14011
187 1 3.5901 0.760737 3.80911 0.8577 -3.15187 -4.14011
188 1 5.6131 14.9217 3.8091 0.8577 -3.15188 -4.14011
189 1 7.6361 14.9217 1.78611 0.857701 -3.15188 -4.14011
190 1 9.6591 0.760737 1.78611 0.857705 -3.15188 -4.14011
191 1 7.6361 0.760737 3.80911 0.8577 -3.15188 -4.14011
192 1 9.6591 14.9217 3.80911 0.8577 -3.15188 -4.14011
193 1 11.6821 2.78374 5.83211 0.857703 -3.15187 -4.14011
194 1 13.7051 4.80674 5.83211 0.8577 -3.15188 -4.14011
195 1 11.6821 4.80674 7.85511 0.857702 -3.15188 -4.14011
196 1 13.7051 2.78374 7.85511 0.8577 -3.15187 -4.14011
197 1 15.7281 2.78374 5.83211 0.857699 -3.15187 -4.14011
198 1 1.5671 4.80674 5.83211 0.857703 -3.15187 -4.14012
199 1 15.7281 4.80674 7.8551 0.8577 -3.15188 -4.14011
200 1 1.5671 2.78374 7.8551 0.8577 -3.15187 -4.14011
201 1 3.5901 2.78374 5.83211 0.857698 -3.15188 -4.14011
202 1 5.6131 4.80674 5.83211 0.857695 -3.15188 -4.14011
203 1 3.5901 4.80674 7.85511 0.8577 -3.15187 -4.14011
204 1 5.6131 2.78374 7.85511 0.857701 -3.15188 -4.14011
205 1 7.6361 2.78374 5.83211 0.857698 -3.15188 -4.14011
206 1 9.6591 4.80674 5.83211 0.857704 -3.15187 -4.14011
207 1 7.6361 4.80674 7.85511 0.857699 -3.15187 -4.14011
208 1 9.6591 2.78374 7.85511 0.8577 -3.15188 -4.1401
209 1 11.6821 6.82974 5.83211 0.8577 -3.15188 -4.14011
210 1 13.7051 8.85274 5.83211 0.8577 -3.15188 -4.1401
211 1 11.6821 8.85274 7.85511 0.857699 -3.15187 -4.1401
212 1 13.7051 6.82974 7.85511 0.857703 -3.15188 -4.1401
213 1 15.7281 6.82974 5.83211 0.8577 -3.15188 -4.1401
214 1 1.5671 8.85274 5.83211 0.857696 -3.15187 -4.14011
215 1 15.7281 8.85274 7.85511 0.857698 -3.15187 -4.1401
216 1 1.5671 6.82974 7.85511 0.857702 -3.15187 -4.1401
217 1 3.5901 6.82974 5.83211 0.857705 -3.15187 -4.14011
218 1 5.6131 8.85274 5.83211 0.857705 -3.15188 -4.1401
219 1 3.5901 8.85274 7.85511 0.857696 -3.15188 -4.14011
220 1 5.6131 6.82974 7.85511 0.857699 -3.15187 -4.1401
221 1 7.6361 6.82974 5.83211 0.857699 -3.15187 -4.14011
222 1 9.6591 8.85274 5.83211 0.857701 -3.15187 -4.14011
223 1 7.6361 8.85274 7.85511 0.857692 -3.15188 -4.1401
224 1 9.6591 6.82974 7.85511 0.857702 -3.15187 -4.1401
225 1 11.6821 10.8757 5.83211 0.857703 -3.15188 -4.1401
226 1 13.7051 12.8987 5.83211 0.857702 -3.15187 -4.14011
227 1 11.6821 12.8987 7.85511 0.857702 -3.15188 -4.1401
228 1 13.7051 10.8757 7.85511 0.857693 -3.15188 -4.1401
229 1 15.7281 10.8757 5.83211 0.857697 -3.15187 -4.1401
230 1 1.5671 12.8987 5.83211 0.857698 -3.15187 -4.14011
231 1 15.7281 12.8987 7.85511 0.857697 -3.15188 -4.1401
232 1 1.5671 10.8757 7.85511 0.857688 -3.15187 -4.14011
233 1 3.5901 10.8757 5.83211 0.857702 -3.15187 -4.1401
234 1 5.6131 12.8987 5.83211 0.857704 -3.15188 -4.14011
235 1 3.5901 12.8987 7.85511 0.857699 -3.15188 -4.1401
236 1 5.6131 10.8757 7.85511 0.857704 -3.15188 -4.14011
237 1 7.6361 10.8757 5.83211 0.857698 -3.15187 -4.14011
238 1 9.6591 12.8987 5.83211 0.857697 -3.15187 -4.14011
239 1 7.6361 12.8987 7.85511 0.857697 -3.15188 -4.1401
240 1 9.6591 10.8757 7.85511 0.857689 -3.15188 -4.1401
241 1 11.6821 14.9217 5.83211 0.857706 -3.15188 -4.14011
242 1 13.7051 0.760737 5.83211 0.857702 -3.15188 -4.14011
243 1 11.6821 0.760737 7.85511 0.857694 -3.15188 -4.14011
244 1 13.7051 14.9217 7.85511 0.8577 -3.15188 -4.14011
245 1 15.7281 14.9217 5.83211 0.857702 -3.15187 -4.1401
246 1 1.5671 0.760737 5.8321 0.857696 -3.15188 -4.14011
247 1 15.7281 0.760737 7.85511 0.857699 -3.15188 -4.14011
248 1 1.5671 14.9217 7.85511 0.857702 -3.15187 -4.14011
249 1 3.5901 14.9217 5.83211 0.8577 -3.15187 -4.1401
250 1 5.6131 0.760737 5.83211 0.857694 -3.15187 -4.14011
251 1 3.5901 0.760737 7.85511 0.857687 -3.15187 -4.1401
252 1 5.6131 14.9217 7.85511 0.857703 -3.15187 -4.14011
253 1 7.6361 14.9217 5.83211 0.857693 -3.15187 -4.14011
254 1 9.6591 0.760737 5.83211 0.8577 -3.15188 -4.14011
255 1 7.6361 0.760737 7.8551 0.857701 -3.15187 -4.14011
256 1 9.6591 14.9217 7.85511 0.857697 -3.15187 -4.14011
