ITEM: TIMESTEP
100000000
ITEM: NUMBER OF ATOMS
256
ITEM: BOX BOUNDS pp pp pp
0.0000000000000000e+00 1.6184000000000001e+01
0.0000000000000000e+00 1.6184000000000001e+01
0.0000000000000000e+00 1.6184000000000001e+01
ITEM: ATOMS id type x y z vx vy vz
1 1 11.0828 12.2197 13.0361 0.864936 -3.17844 -4.17501
2 1 13.1058 14.2427 13.0361 0.864947 -3.17844 -4.17502
3 1 11.0828 14.2427 15.0591 0.864936 -3.17843 -4.17501
4 1 13.1058 12.2197 15.0591 0.864935 -3.17843 -4.17501
5 1 15.1288 12.2197 13.0361 0.864944 -3.17845 -4.175
6 1 0.967753 14.2427 13.0361 0.864945 -3.17843 -4.17501
7 1 15.1288 14.2427 15.0591 0.864934 -3.17844 -4.17501
8 1 0.967752 12.2197 15.0591 0.864934 -3.17844 -4.17499
9 1 2.99075 12.2197 13.0361 0.864931 -3.17843 -4.17499
10 1 5.01375 14.2427 13.0361 0.864934 -3.17844 -4.17499
11 1 2.99075 14.2427 15.0591 0.864933 -3.17844 -4.175
12 1 5.01375 12.2197 15.0591 0.864934 -3.17844 -4.17498
13 1 7.03675 12.2197 13.0361 0.864939 -3.17844 -4.17499
14 1 9.05975 14.2427 13.0361 0.864944 -3.17843 -4.175
15 1 7.03675 14.2427 15.0591 0.864934 -3.17844 -4.175
16 1 9.05975 12.2197 15.0591 0.864926 -3.17843 -4.17499
17 1 11.0828 0.0817367 13.0361 0.864953 -3.17843 -4.17502
18 1 13.1058 2.10474 13.0361 0.864943 -3.17844 -4.17504
19 1 11.0828 2.10474 15.0591 0.864939 -3.17843 -4.17503
20 1 13.1058 0.0817368 15.0591 0.864933 -3.17843 -4.17503
21 1 15.1288 0.0817367 13.0361 0.864939 -3.17844 -4.17503
22 1 0.967753 2.10474 13.0361 0.864944 -3.17844 -4.17503
23 1 15.1288 2.10474 15.0591 0.864948 -3.17843 -4.17504
24 1 0.967753 0.0817367 15.0591 0.86494 -3.17843 -4.17502
25 1 2.99075 0.0817368 13.0361 0.864938 -3.17844 -4.17501
26 1 5.01375 2.10474 13.0361 0.864944 -3.17843 -4.17501
27 1 2.99075 2.10474 15.0591 0.864942 -3.17844 -4.17502
28 1 5.01375 0.0817367 15.0591 0.864938 -3.17843 -4.17501
29 1 7.03675 0.0817368 13.0361 0.864937 -3.17843 -4.17501
30 1 9.05975 2.10474 13.0361 0.864942 -3.17844 -4.17502
31 1 7.03675 2.10474 15.0591 0.864944 -3.17844 -4.17502
32 1 9.05975 0.081737 15.0591 0.864938 -3.17844 -4.17502
33 1 11.0828 4.12774 13.0361 0.864953 -3.17845 -4.17503
34 1 13.1058 6.15074 13.0361 0.864939 -3.17844 -4.17503
35 1 11.0828 6.15074 15.0591 0.864946 -3.17844 -4.17502
36 1 13.1058 4.12774 15.0591 0.864945 -3.17843 -4.17504
37 1 15.1288 4.12774 13.0361 0.864937 -3.17844 -4.17504
38 1 0.967752 6.15074 13.0361 0.864939 -3.17844 -4.17502
39 1 15.1288 6.15074 15.0591 0.86494 -3.17844 -4.17503
40 1 0.967753 4.12774 15.0591 0.864937 -3.17845 -4.17503
41 1 2.99075 4.12774 13.0361 0.864945 -3.17843 -4.17502
42 1 5.01375 6.15074 13.0361 0.864935 -3.17844 -4.175
43 1 2.99075 6.15074 15.0591 0.864943 -3.17844 -4.17501
44 1 5.01375 4.12774 15.0591 0.864943 -3.17845 -4.17501
45 1 7.03675 4.12774 13.0361 0.864949 -3.17843 -4.17501
46 1 9.05975 6.15074 13.0361 0.864935 -3.17844 -4.175
47 1 7.03675 6.15074 15.0591 0.864939 -3.17843 -4.17499
48 1 9.05975 4.12774 15.0591 0.864942 -3.17844 -4.17502
49 1 11.0828 8.17374 13.0361 0.86494 -3.17844 -4.17501
50 1 13.1058 10.1967 13.0361 0.864937 -3.17844 -4.17501
51 1 11.0828 10.1967 15.0591 0.86493 -3.17843 -4.17501
52 1 13.1058 8.17374 15.0591 0.864941 -3.17843 -4.17502
53 1 15.1288 8.17374 13.0361 0.864932 -3.17844 -4.17501
54 1 0.967752 10.1967 13.0361 0.864933 -3.17844 -4.17499
55 1 15.1288 10.1967 15.0591 0.86493 -3.17843 -4.175
56 1 0.967752 8.17374 15.0591 0.864932 -3.17844 -4.175
57 1 2.99075 8.17374 13.0361 0.864936 -3.17844 -4.17499
58 1 5.01375 10.1967 13.0361 0.864938 -3.17844 -4.17498
59 1 2.99075 10.1967 15.0591 0.864927 -3.17844 -4.17498
60 1 5.01375 8.17374 15.0591 0.864939 -3.17844 -4.17498
61 1 7.03675 8.17374 13.0361 0.864934 -3.17844 -4.17498
62 1 9.05975 10.1967 13.0361 0.864929 -3.17845 -4.17499
63 1 7.03675 10.1967 15.0591 0.864928 -3.17844 -4.17497
64 1 9.05975 8.17374 15.0591 0.864927 -3.17843 -4.17499
65 1 11.0828 12.2197 0.898055 0.864923 -3.17843 -4.17501
66 1 13.1058 14.2427 0.898054 0.864926 -3.17843 -4.17502
67 1 11.0828 14.2427 2.92105 0.864917 -3.17844 -4.17501
68 1 13.1058 12.2197 2.92105 0.864906 -3.17845 -4.17501
69 1 15.1288 12.2197 0.898055 0.86492 -3.17843 -4.17501
70 1 0.967752 14.2427 0.898055 0.864922 -3.17845 -4.175
71 1 15.1288 14.2427 2.92105 0.864911 -3.17844 -4.17502
72 1 0.967752 12.2197 2.92105 0.864908 -3.17845 -4.175
73 1 2.99075 12.2197 0.898055 0.864915 -3.17845 -4.17498
74 1 5.01375 14.2427 0.898055 0.864928 -3.17844 -4.17499
75 1 2.99075 14.2427 2.92105 0.864916 -3.17845 -4.175
76 1 5.01375 12.2197 2.92106 0.864917 -3.17845 -4.17497
77 1 7.03675 12.2197 0.898056 0.864925 -3.17843 -4.17499
78 1 9.05975 14.2427 0.898055 0.864925 -3.17843 -4.17501
79 1 7.03675 14.2427 2.92106 0.86491 -3.17845 -4.175
80 1 9.05975 12.2197 2.92106 0.86491 -3.17845 -4.175
81 1 11.0828 0.0817366 0.898054 0.864938 -3.17843 -4.17502
82 1 13.1058 2.10474 0.898054 0.864934 -3.17843 -4.17504
83 1 11.0828 2.10474 2.92105 0.864933 -3.17845 -4.17503
84 1 13.1058 0.0817363 2.92105 0.864924 -3.17843 -4.17503
85 1 15.1288 0.0817363 0.898054 0.864928 -3.17843 -4.17503
86 1 0.967752 2.10474 0.898054 0.864941 -3.17844 -4.17503
87 1 15.1288 2.10474 2.92105 0.864929 -3.17845 -4.17504
88 1 0.967752 0.0817362 2.92105 0.864926 -3.17846 -4.17502
89 1 2.99075 0.0817366 0.898055 0.864935 -3.17845 -4.17501
90 1 5.01375 2.10474 0.898055 0.864932 -3.17845 -4.17502
91 1 2.99075 2.10474 2.92105 0.864924 -3.17845 -4.17502
92 1 5.01375 0.0817361 2.92105 0.864931 -3.17846 -4.17501
93 1 7.03675 0.0817367 0.898055 0.864931 -3.17845 -4.17502
94 1 9.05975 2.10474 0.898054 0.864932 -3.17844 -4.17502
95 1 7.03675 2.10474 2.92105 0.864932 -3.17844 -4.17501
96 1 9.05975 0.0817364 2.92105 0.864923 -3.17845 -4.17502
97 1 11.0828 4.12774 0.898054 0.864931 -3.17843 -4.17503
98 1 13.1058 6.15074 0.898054 0.864929 -3.17844 -4.17502
99 1 11.0828 6.15074 2.92105 0.86493 -3.17845 -4.17502
100 1 13.1058 4.12774 2.92105 0.864939 -3.17846 -4.17503
101 1 15.1288 4.12774 0.898054 0.864942 -3.17844 -4.17504
102 1 0.967752 6.15074 0.898054 0.864937 -3.17844 -4.17501
103 1 15.1288 6.15074 2.92105 0.864933 -3.17845 -4.17503
104 1 0.967752 4.12774 2.92105 0.864939 -3.17845 -4.17502
105 1 2.99075 4.12774 0.898054 0.86493 -3.17844 -4.17502
106 1 5.01375 6.15074 0.898055 0.864927 -3.17844 -4.175
107 1 2.99075 6.15074 2.92105 0.864925 -3.17846 -4.175
108 1 5.01375 4.12774 2.92105 0.864922 -3.17846 -4.17501
109 1 7.03675 4.12774 0.898055 0.864934 -3.17845 -4.17501
110 1 9.05975 6.15074 0.898055 0.86494 -3.17843 -4.17501
111 1 7.03675 6.15074 2.92106 0.864927 -3.17846 -4.175
112 1 9.05975 4.12774 2.92105 0.864941 -3.17844 -4.17502
113 1 11.0828 8.17374 0.898055 0.86493 -3.17844 -4.175
114 1 13.1058 10.1967 0.898055 0.864917 -3.17844 -4.17501
115 1 11.0828 10.1967 2.92106 0.86491 -3.17844 -4.175
116 1 13.1058 8.17374 2.92105 0.864921 -3.17844 -4.17503
117 1 15.1288 8.17374 0.898055 0.86493 -3.17844 -4.17501
118 1 0.967752 10.1967 0.898055 0.864919 -3.17844 -4.175
119 1 15.1288 10.1967 2.92106 0.864923 -3.17845 -4.175
120 1 0.967752 8.17374 2.92106 0.864935 -3.17845 -4.175
121 1 2.99075 8.17374 0.898055 0.864932 -3.17844 -4.17499
122 1 5.01375 10.1967 0.898056 0.864919 -3.17845 -4.17496
123 1 2.99075 10.1967 2.92106 0.864918 -3.17845 -4.17498
124 1 5.01375 8.17374 2.92106 0.864922 -3.17845 -4.17498
125 1 7.03675 8.17374 0.898055 0.864923 -3.17844 -4.17497
126 1 9.05975 10.1967 0.898055 0.864923 -3.17844 -4.17499
127 1 7.03675 10.1967 2.92106 0.864919 -3.17845 -4.17498
128 1 9.05975 8.17374 2.92106 0.864928 -3.17845 -4.17499
129 1 11.0828 12.2197 4.94405 0.864909 -3.17845 -4.17501
130 1 13.1058 14.2427 4.94405 0.864916 -3.17845 -4.17502
131 1 11.0828 14.2427 6.96705 0.864926 -3.17846 -4.17501
132 1 13.1058 12.2197 6.96705 0.86492 -3.17846 -4.17501
133 1 15.1288 12.2197 4.94405 0.864907 -3.17846 -4.175
134 1 0.967752 14.2427 4.94405 0.864913 -3.17845 -4.17501
135 1 15.1288 14.2427 6.96705 0.864931 -3.17845 -4.17501
136 1 0.967752 12.2197 6.96706 0.864921 -3.17845 -4.17499
137 1 2.99075 12.2197 4.94406 0.864912 -3.17846 -4.17498
138 1 5.01375 14.2427 4.94406 0.864916 -3.17846 -4.175
139 1 2.99075 14.2427 6.96705 0.864921 -3.17845 -4.175
140 1 5.01375 12.2197 6.96706 0.864916 -3.17846 -4.17498
141 1 7.03675 12.2197 4.94406 0.864909 -3.17846 -4.17499
142 1 9.05975 14.2427 4.94405 0.864914 -3.17846 -4.175
143 1 7.03675 14.2427 6.96706 0.864922 -3.17846 -4.175
144 1 9.05975 12.2197 6.96706 0.864922 -3.17847 -4.17499
145 1 11.0828 0.0817361 4.94405 0.864931 -3.17845 -4.17503
146 1 13.1058 2.10474 4.94405 0.864936 -3.17845 -4.17504
147 1 11.0828 2.10474 6.96705 0.864942 -3.17847 -4.17503
148 1 13.1058 0.0817357 6.96705 0.86493 -3.17847 -4.17503
149 1 15.1288 0.0817357 4.94405 0.864926 -3.17844 -4.17503
150 1 0.967752 2.10474 4.94405 0.864928 -3.17845 -4.17503
151 1 15.1288 2.10474 6.96705 0.864936 -3.17847 -4.17503
152 1 0.967752 0.0817359 6.96705 0.864927 -3.17845 -4.17502
153 1 2.99075 0.0817359 4.94405 0.864922 -3.17845 -4.17501
154 1 5.01375 2.10474 4.94405 0.86493 -3.17846 -4.17502
155 1 2.99075 2.10474 6.96705 0.864935 -3.17846 -4.17502
156 1 5.01375 0.0817359 6.96705 0.864927 -3.17845 -4.17501
157 1 7.03675 0.0817359 4.94405 0.864922 -3.17846 -4.17501
158 1 9.05975 2.10474 4.94405 0.86494 -3.17846 -4.17502
159 1 7.03675 2.10474 6.96705 0.864939 -3.17846 -4.17502
160 1 9.05975 0.0817357 6.96705 0.864928 -3.17847 -4.17501
161 1 11.0828 4.12774 4.94405 0.864933 -3.17845 -4.17503
162 1 13.1058 6.15074 4.94405 0.864936 -3.17845 -4.17503
163 1 11.0828 6.15074 6.96705 0.864931 -3.17846 -4.17502
164 1 13.1058 4.12774 6.96705 0.864939 -3.17846 -4.17503
165 1 15.1288 4.12774 4.94405 0.864922 -3.17844 -4.17504
166 1 0.967752 6.15074 4.94405 0.864925 -3.17846 -4.17501
167 1 15.1288 6.15074 6.96705 0.86493 -3.17846 -4.17503
168 1 0.967753 4.12774 6.96705 0.864934 -3.17846 -4.17503
169 1 2.99075 4.12774 4.94405 0.864938 -3.17846 -4.17502
170 1 5.01375 6.15074 4.94406 0.864927 -3.17846 -4.175
171 1 2.99075 6.15074 6.96705 0.864936 -3.17846 -4.17501
172 1 5.01375 4.12774 6.96705 0.864944 -3.17846 -4.17501
173 1 7.03675 4.12774 4.94405 0.864934 -3.17846 -4.17502
174 1 9.05975 6.15074 4.94405 0.864928 -3.17845 -4.175
175 1 7.03675 6.15074 6.96706 0.864926 -3.17846 -4.175
176 1 9.05975 4.12774 6.96705 0.864933 -3.17846 -4.17502
177 1 11.0828 8.17374 4.94405 0.86492 -3.17846 -4.17501
178 1 13.1058 10.1967 4.94405 0.864914 -3.17845 -4.17501
179 1 11.0828 10.1967 6.96705 0.864925 -3.17847 -4.175
180 1 13.1058 8.17374 6.96705 0.864923 -3.17847 -4.17502
181 1 15.1288 8.17374 4.94405 0.864923 -3.17846 -4.17502
182 1 0.967752 10.1967 4.94406 0.864913 -3.17845 -4.17499
183 1 15.1288 10.1967 6.96706 0.864915 -3.17846 -4.175
184 1 0.967752 8.17374 6.96706 0.864921 -3.17846 -4.17501
185 1 2.99075 8.17374 4.94406 0.864916 -3.17846 -4.17498
186 1 5.01375 10.1967 4.94406 0.864911 -3.17846 -4.17499
187 1 2.99075 10.1967 6.96706 0.864919 -3.17846 -4.17498
188 1 5.01375 8.17374 6.96706 0.864927 -3.17846 -4.17498
189 1 7.03675 8.17374 4.94406 0.864922 -3.17846 -4.17498
190 1 9.05975 10.1967 4.94406 0.864915 -3.17845 -4.17499
191 1 7.03675 10.1967 6.96706 0.864917 -3.17845 -4.17498
192 1 9.05975 8.17374 6.96706 0.864918 -3.17847 -4.17499
193 1 11.0828 12.2197 8.99005 0.864934 -3.17846 -4.17501
194 1 13.1058 14.2427 8.99005 0.864933 -3.17846 -4.17501
195 1 11.0828 14.2427 11.0131 0.864943 -3.17845 -4.17502
196 1 13.1058 12.2197 11.0131 0.864934 -3.17845 -4.17501
197 1 15.1288 12.2197 8.99005 0.864924 -3.17846 -4.175
198 1 0.967753 14.2427 8.99005 0.864936 -3.17845 -4.175
199 1 15.1288 14.2427 11.0131 0.864939 -3.17845 -4.17501
200 1 0.967753 12.2197 11.0131 0.86493 -3.17845 -4.175
201 1 2.99075 12.2197 8.99006 0.864923 -3.17845 -4.17499
202 1 5.01375 14.2427 8.99006 0.864933 -3.17845 -4.175
203 1 2.99075 14.2427 11.0131 0.86494 -3.17844 -4.175
204 1 5.01375 12.2197 11.0131 0.864929 -3.17845 -4.17498
205 1 7.03675 12.2197 8.99006 0.864927 -3.17846 -4.17498
206 1 9.05975 14.2427 8.99005 0.864929 -3.17846 -4.17502
207 1 7.03675 14.2427 11.0131 0.864935 -3.17845 -4.175
208 1 9.05975 12.2197 11.0131 0.864936 -3.17845 -4.175
209 1 11.0828 0.0817359 8.99005 0.864939 -3.17846 -4.17502
210 1 13.1058 2.10474 8.99005 0.864935 -3.17846 -4.17504
211 1 11.0828 2.10474 11.0131 0.864949 -3.17845 -4.17503
212 1 13.1058 0.0817366 11.0131 0.864946 -3.17845 -4.17503
213 1 15.1288 0.0817362 8.99005 0.864935 -3.17846 -4.17502
214 1 0.967753 2.10474 8.99005 0.864935 -3.17845 -4.17503
215 1 15.1288 2.10474 11.0131 0.864945 -3.17844 -4.17504
216 1 0.967753 0.0817368 11.0131 0.864945 -3.17845 -4.17502
217 1 2.99075 0.0817364 8.99005 0.864936 -3.17845 -4.17501
218 1 5.01375 2.10474 8.99005 0.864941 -3.17846 -4.17502
219 1 2.99075 2.10474 11.0131 0.864943 -3.17845 -4.17503
220 1 5.01375 0.0817365 11.0131 0.864939 -3.17845 -4.17501
221 1 7.03675 0.0817364 8.99005 0.864938 -3.17846 -4.17501
222 1 9.05975 2.10474 8.99005 0.864941 -3.17846 -4.17502
223 1 7.03675 2.10474 11.0131 0.864938 -3.17845 -4.17502
224 1 9.05975 0.0817363 11.0131 0.864946 -3.17845 -4.17502
225 1 11.0828 4.12774 8.99005 0.864938 -3.17847 -4.17504
226 1 13.1058 6.15074 8.99005 0.86493 -3.17846 -4.17503
227 1 11.0828 6.15074 11.0131 0.864936 -3.17846 -4.17502
228 1 13.1058 4.12774 11.0131 0.864944 -3.17845 -4.17504
229 1 15.1288 4.12774 8.99005 0.86494 -3.17846 -4.17504
230 1 0.967752 6.15074 8.99005 0.864942 -3.17845 -4.17502
231 1 15.1288 6.15074 11.0131 0.864931 -3.17845 -4.17503
232 1 0.967753 4.12774 11.0131 0.864936 -3.17845 -4.17503
233 1 2.99075 4.12774 8.99005 0.864933 -3.17845 -4.17503
234 1 5.01375 6.15074 8.99006 0.864932 -3.17846 -4.175
235 1 2.99075 6.15074 11.0131 0.864932 -3.17845 -4.17501
236 1 5.01375 4.12774 11.0131 0.864944 -3.17845 -4.17502
237 1 7.03675 4.12774 8.99005 0.864934 -3.17846 -4.17501
238 1 9.05975 6.15074 8.99005 0.864931 -3.17846 -4.17501
239 1 7.03675 6.15074 11.0131 0.864938 -3.17845 -4.175
240 1 9.05975 4.12774 11.0131 0.864946 -3.17845 -4.17502
241 1 11.0828 8.17374 8.99005 0.864927 -3.17847 -4.17501
242 1 13.1058 10.1967 8.99005 0.864927 -3.17846 -4.17501
243 1 11.0828 10.1967 11.0131 0.864934 -3.17846 -4.175
244 1 13.1058 8.17374 11.0131 0.864934 -3.17845 -4.17501
245 1 15.1288 8.17374 8.99005 0.864932 -3.17846 -4.17502
246 1 0.967752 10.1967 8.99006 0.864928 -3.17845 -4.175
247 1 15.1288 10.1967 11.0131 0.864933 -3.17844 -4.17501
248 1 0.967752 8.17374 11.0131 0.864935 -3.17845 -4.175
249 1 2.99075 8.17374 8.99006 0.864928 -3.17845 -4.17499
250 1 5.01375 10.1967 8.99006 0.864928 -3.17845 -4.17497
251 1 2.99075 10.1967 11.0131 0.864939 -3.17844 -4.17498
252 1 5.01375 8.17374 11.0131 0.864929 -3.17845 -4.17498
253 1 7.03675 8.17374 8.99006 0.86493 -3.17846 -4.17498
254 1 9.05975 10.1967 8.99006 0.864929 -3.17846 -4.17499
255 1 7.03675 10.1967 11.0131 0.864937 -3.17845 -4.17498
256 1 9.05975 8.17374 11.0131 0.864938 -3.17845 -4.17499
