ITEM: TIMESTEP
22000000
ITEM: NUMBER OF ATOMS
256
ITEM: BOX BOUNDS pp pp pp
0.0000000000000000e+00 1.6184000000000001e+01
0.0000000000000000e+00 1.6184000000000001e+01
0.0000000000000000e+00 1.6184000000000001e+01
ITEM: ATOMS id type x y z vx vy vz
1 1 14.4206 14.5918 14.8769 0.888796 -3.26616 -4.29022
2 1 0.259557 0.430761 14.8769 0.888795 -3.26617 -4.29023
3 1 14.4206 0.430761 0.715887 0.888802 -3.26617 -4.29023
4 1 0.259557 14.5918 0.715887 0.888806 -3.26617 -4.29024
5 1 2.28256 14.5918 14.8769 0.888804 -3.26616 -4.29023
6 1 4.30556 0.430761 14.8769 0.8888 -3.26617 -4.29023
7 1 2.28256 0.430761 0.715887 0.888795 -3.26617 -4.29025
8 1 4.30556 14.5918 0.715887 0.888799 -3.26617 -4.29023
9 1 6.32856 14.5918 14.8769 0.888803 -3.26617 -4.29023
10 1 8.35156 0.430761 14.8769 0.888797 -3.26616 -4.29024
11 1 6.32856 0.430761 0.715887 0.888796 -3.26616 -4.29023
12 1 8.35156 14.5918 0.715887 0.888806 -3.26617 -4.29023
13 1 10.3746 14.5918 14.8769 0.888801 -3.26616 -4.29023
14 1 12.3976 0.430761 14.8769 0.888799 -3.26618 -4.29022
15 1 10.3746 0.430761 0.715886 0.888807 -3.26616 -4.29023
16 1 12.3976 14.5918 0.715886 0.888802 -3.26617 -4.29023
17 1 14.4206 2.45376 14.8769 0.888794 -3.26616 -4.29023
18 1 0.259557 4.47676 14.8769 0.888798 -3.26617 -4.29023
19 1 14.4206 4.47676 0.715886 0.888801 -3.26616 -4.29023
20 1 0.259557 2.45376 0.715887 0.888799 -3.26617 -4.29024
21 1 2.28256 2.45376 14.8769 0.888801 -3.26617 -4.29023
22 1 4.30556 4.47676 14.8769 0.888806 -3.26617 -4.29023
23 1 2.28256 4.47676 0.715887 0.888801 -3.26616 -4.29023
24 1 4.30556 2.45376 0.715887 0.888804 -3.26617 -4.29024
25 1 6.32856 2.45376 14.8769 0.888799 -3.26617 -4.29024
26 1 8.35156 4.47676 14.8769 0.888807 -3.26616 -4.29023
27 1 6.32856 4.47676 0.715886 0.8888 -3.26616 -4.29023
28 1 8.35156 2.45376 0.715887 0.888801 -3.26616 -4.29023
29 1 10.3746 2.45376 14.8769 0.888805 -3.26617 -4.29023
30 1 12.3976 4.47676 14.8769 0.888802 -3.26617 -4.29023
31 1 10.3746 4.47676 0.715887 0.888802 -3.26616 -4.29023
32 1 12.3976 2.45376 0.715886 0.888807 -3.26617 -4.29023
33 1 14.4206 6.49976 14.8769 0.888799 -3.26616 -4.29023
34 1 0.259557 8.52276 14.8769 0.888803 -3.26617 -4.29023
35 1 14.4206 8.52276 0.715886 0.888799 -3.26617 -4.29024
36 1 0.259558 6.49976 0.715887 0.888803 -3.26617 -4.29023
37 1 2.28256 6.49976 14.8769 0.888808 -3.26617 -4.29023
38 1 4.30556 8.52276 14.8769 0.888801 -3.26616 -4.29023
39 1 2.28256 8.52276 0.715887 0.888799 -3.26616 -4.29023
40 1 4.30556 6.49976 0.715887 0.888801 -3.26617 -4.29022
41 1 6.32856 6.49976 14.8769 0.888808 -3.26617 -4.29022
42 1 8.35156 8.52276 14.8769 0.888804 -3.26617 -4.29023
43 1 6.32856 8.52276 0.715887 0.888807 -3.26616 -4.29023
44 1 8.35156 6.49976 0.715887 0.888809 -3.26616 -4.29022
45 1 10.3746 6.49976 14.8769 0.888801 -3.26617 -4.29023
46 1 12.3976 8.52276 14.8769 0.8888 -3.26616 -4.29023
47 1 10.3746 8.52276 0.715887 0.888802 -3.26616 -4.29023
48 1 12.3976 6.49976 0.715887 0.8888 -3.26617 -4.29023
49 1 14.4206 10.5458 14.8769 0.888797 -3.26617 -4.29023
50 1 0.259557 12.5688 14.8769 0.888802 -3.26616 -4.29023
51 1 14.4206 12.5688 0.715886 0.888799 -3.26617 -4.29023
52 1 0.259557 10.5458 0.715886 0.888796 -3.26617 -4.29023
53 1 2.28256 10.5458 14.8769 0.8888 -3.26616 -4.29023
54 1 4.30556 12.5688 14.8769 0.8888 -3.26617 -4.29023
55 1 2.28256 12.5688 0.715887 0.888802 -3.26617 -4.29024
56 1 4.30556 10.5458 0.715886 0.888795 -3.26617 -4.29023
57 1 6.32856 10.5458 14.8769 0.888802 -3.26616 -4.29023
58 1 8.35156 12.5688 14.8769 0.888803 -3.26617 -4.29023
59 1 6.32856 12.5688 0.715887 0.888804 -3.26617 -4.29023
60 1 8.35156 10.5458 0.715887 0.888796 -3.26617 -4.29023
61 1 10.3746 10.5458 14.8769 0.888802 -3.26617 -4.29024
62 1 12.3976 12.5688 14.8769 0.888799 -3.26617 -4.29024
63 1 10.3746 12.5688 0.715887 0.888797 -3.26617 -4.29023
64 1 12.3976 10.5458 0.715887 0.8888 -3.26617 -4.29023
65 1 14.4206 14.5918 2.73889 0.888804 -3.26617 -4.29023
66 1 0.259557 0.430761 2.73889 0.888807 -3.26617 -4.29023
67 1 14.4206 0.430761 4.76189 0.888803 -3.26617 -4.29023
68 1 0.259557 14.5918 4.76189 0.888801 -3.26616 -4.29022
69 1 2.28256 14.5918 2.73889 0.8888 -3.26617 -4.29023
70 1 4.30556 0.430761 2.73889 0.888801 -3.26616 -4.29023
71 1 2.28256 0.430761 4.76189 0.888808 -3.26616 -4.29023
72 1 4.30556 14.5918 4.76189 0.888802 -3.26617 -4.29024
73 1 6.32856 14.5918 2.73889 0.888805 -3.26617 -4.29023
74 1 8.35156 0.43076 2.73889 0.888803 -3.26616 -4.29023
75 1 6.32856 0.430761 4.76189 0.888805 -3.26617 -4.29023
76 1 8.35156 14.5918 4.76189 0.888801 -3.26617 -4.29023
77 1 10.3746 14.5918 2.73889 0.888798 -3.26617 -4.29023
78 1 12.3976 0.430761 2.73889 0.888804 -3.26617 -4.29024
79 1 10.3746 0.430761 4.76189 0.888797 -3.26617 -4.29023
80 1 12.3976 14.5918 4.76189 0.888801 -3.26616 -4.29023
81 1 14.4206 2.45376 2.73889 0.888809 -3.26616 -4.29023
82 1 0.259557 4.47676 2.73889 0.8888 -3.26617 -4.29023
83 1 14.4206 4.47676 4.76189 0.888797 -3.26617 -4.29023
84 1 0.259557 2.45376 4.76189 0.888808 -3.26616 -4.29023
85 1 2.28256 2.45376 2.73889 0.8888 -3.26616 -4.29023
86 1 4.30556 4.47676 2.73889 0.888798 -3.26616 -4.29024
87 1 2.28256 4.47676 4.76189 0.888805 -3.26617 -4.29023
88 1 4.30556 2.45376 4.76189 0.888803 -3.26616 -4.29023
89 1 6.32856 2.45376 2.73889 0.888801 -3.26616 -4.29023
90 1 8.35156 4.47676 2.73889 0.888792 -3.26616 -4.29023
91 1 6.32856 4.47676 4.76189 0.888813 -3.26617 -4.29024
92 1 8.35156 2.45376 4.76189 0.888803 -3.26617 -4.29022
93 1 10.3746 2.45376 2.73889 0.8888 -3.26617 -4.29023
94 1 12.3976 4.47676 2.73889 0.8888 -3.26616 -4.29023
95 1 10.3746 4.47676 4.76189 0.888794 -3.26617 -4.29023
96 1 12.3976 2.45376 4.76189 0.888802 -3.26617 -4.29023
97 1 14.4206 6.49976 2.73889 0.8888 -3.26616 -4.29024
98 1 0.259557 8.52276 2.73889 0.888798 -3.26617 -4.29023
99 1 14.4206 8.52276 4.76189 0.888795 -3.26617 -4.29024
100 1 0.259557 6.49976 4.76189 0.888805 -3.26617 -4.29023
101 1 2.28256 6.49976 2.73889 0.888801 -3.26616 -4.29023
102 1 4.30556 8.52276 2.73889 0.888792 -3.26617 -4.29024
103 1 2.28256 8.52276 4.76189 0.8888 -3.26616 -4.29023
104 1 4.30556 6.49976 4.76189 0.888801 -3.26616 -4.29023
105 1 6.32856 6.49976 2.73889 0.888796 -3.26616 -4.29023
106 1 8.35156 8.52276 2.73889 0.888801 -3.26617 -4.29023
107 1 6.32856 8.52276 4.76189 0.888798 -3.26616 -4.29023
108 1 8.35156 6.49976 4.76189 0.888803 -3.26617 -4.29023
109 1 10.3746 6.49976 2.73889 0.888803 -3.26616 -4.29023
110 1 12.3976 8.52276 2.73889 0.888808 -3.26617 -4.29023
111 1 10.3746 8.52276 4.76189 0.888805 -3.26616 -4.29024
112 1 12.3976 6.49976 4.76189 0.8888 -3.26617 -4.29022
113 1 14.4206 10.5458 2.73889 0.888803 -3.26616 -4.29024
114 1 0.259557 12.5688 2.73889 0.888801 -3.26617 -4.29023
115 1 14.4206 12.5688 4.76189 0.888801 -3.26616 -4.29023
116 1 0.259557 10.5458 4.76189 0.888804 -3.26617 -4.29023
117 1 2.28256 10.5458 2.73889 0.888798 -3.26617 -4.29023
118 1 4.30556 12.5688 2.73889 0.888801 -3.26617 -4.29024
119 1 2.28256 12.5688 4.76189 0.888797 -3.26617 -4.29023
120 1 4.30556 10.5458 4.76189 0.888796 -3.26617 -4.29023
121 1 6.32856 10.5458 2.73889 0.888803 -3.26615 -4.29023
122 1 8.35156 12.5688 2.73889 0.888795 -3.26616 -4.29023
123 1 6.32856 12.5688 4.76189 0.8888 -3.26617 -4.29023
124 1 8.35156 10.5458 4.76189 0.888802 -3.26616 -4.29023
125 1 10.3746 10.5458 2.73889 0.888808 -3.26617 -4.29023
126 1 12.3976 12.5688 2.73889 0.888803 -3.26616 -4.29023
127 1 10.3746 12.5688 4.76189 0.888802 -3.26616 -4.29023
128 1 12.3976 10.5458 4.76189 0.888811 -3.26617 -4.29023
129 1 14.4206 14.5918 6.78489 0.888803 -3.26617 -4.29024
130 1 0.259557 0.430761 6.78489 0.888799 -3.26617 -4.29023
131 1 14.4206 0.430761 8.80789 0.888797 -3.26616 -4.29024
132 1 0.259557 14.5918 8.80789 0.888798 -3.26616 -4.29023
133 1 2.28256 14.5918 6.78489 0.888811 -3.26617 -4.29022
134 1 4.30556 0.430761 6.78489 0.888806 -3.26616 -4.29023
135 1 2.28256 0.430761 8.80789 0.888804 -3.26617 -4.29023
136 1 4.30556 14.5918 8.80789 0.8888 -3.26617 -4.29023
137 1 6.32856 14.5918 6.78489 0.888797 -3.26616 -4.29023
138 1 8.35156 0.430761 6.78489 0.888802 -3.26617 -4.29022
139 1 6.32856 0.430761 8.80789 0.888803 -3.26618 -4.29024
140 1 8.35156 14.5918 8.80789 0.888801 -3.26616 -4.29023
141 1 10.3746 14.5918 6.78489 0.888798 -3.26616 -4.29023
142 1 12.3976 0.430761 6.78489 0.888798 -3.26617 -4.29023
143 1 10.3746 0.43076 8.80789 0.888806 -3.26617 -4.29022
144 1 12.3976 14.5918 8.80789 0.888802 -3.26616 -4.29023
145 1 14.4206 2.45376 6.78489 0.888797 -3.26617 -4.29023
146 1 0.259558 4.47676 6.78489 0.888802 -3.26618 -4.29024
147 1 14.4206 4.47676 8.80789 0.888801 -3.26617 -4.29024
148 1 0.259557 2.45376 8.80789 0.888796 -3.26616 -4.29023
149 1 2.28256 2.45376 6.78489 0.888804 -3.26617 -4.29024
150 1 4.30556 4.47676 6.78489 0.888802 -3.26618 -4.29023
151 1 2.28256 4.47676 8.80789 0.888805 -3.26617 -4.29023
152 1 4.30556 2.45376 8.80789 0.888797 -3.26618 -4.29023
153 1 6.32856 2.45376 6.78489 0.888802 -3.26617 -4.29022
154 1 8.35156 4.47676 6.78489 0.888797 -3.26616 -4.29023
155 1 6.32856 4.47676 8.80789 0.8888 -3.26616 -4.29023
156 1 8.35156 2.45376 8.80789 0.888796 -3.26617 -4.29023
157 1 10.3746 2.45376 6.78489 0.888801 -3.26617 -4.29023
158 1 12.3976 4.47676 6.78489 0.888796 -3.26617 -4.29023
159 1 10.3746 4.47676 8.80789 0.888798 -3.26617 -4.29024
160 1 12.3976 2.45376 8.80789 0.888799 -3.26617 -4.29024
161 1 14.4206 6.49976 6.78489 0.888797 -3.26617 -4.29023
162 1 0.259557 8.52276 6.78489 0.888802 -3.26617 -4.29023
163 1 14.4206 8.52276 8.80789 0.888806 -3.26617 -4.29022
164 1 0.259558 6.49976 8.80789 0.888809 -3.26616 -4.29023
165 1 2.28256 6.49976 6.78489 0.888801 -3.26617 -4.29023
166 1 4.30556 8.52276 6.78489 0.888792 -3.26617 -4.29023
167 1 2.28256 8.52276 8.80789 0.888799 -3.26616 -4.29023
168 1 4.30556 6.49976 8.80789 0.888799 -3.26616 -4.29022
169 1 6.32856 6.49976 6.78489 0.888803 -3.26617 -4.29024
170 1 8.35156 8.52276 6.78489 0.888807 -3.26617 -4.29023
171 1 6.32856 8.52276 8.80789 0.888808 -3.26616 -4.29023
172 1 8.35156 6.49976 8.80789 0.888801 -3.26617 -4.29023
173 1 10.3746 6.49976 6.78489 0.888804 -3.26617 -4.29024
174 1 12.3976 8.52276 6.78489 0.888803 -3.26617 -4.29023
175 1 10.3746 8.52276 8.80789 0.88881 -3.26617 -4.29024
176 1 12.3976 6.49976 8.80789 0.888798 -3.26616 -4.29024
177 1 14.4206 10.5458 6.78489 0.888803 -3.26616 -4.29023
178 1 0.259557 12.5688 6.78489 0.888798 -3.26616 -4.29022
179 1 14.4206 12.5688 8.80789 0.888799 -3.26616 -4.29023
180 1 0.259557 10.5458 8.80789 0.8888 -3.26616 -4.29023
181 1 2.28256 10.5458 6.78489 0.888798 -3.26616 -4.29022
182 1 4.30556 12.5688 6.78489 0.888799 -3.26617 -4.29023
183 1 2.28256 12.5688 8.80789 0.888801 -3.26617 -4.29023
184 1 4.30556 10.5458 8.80789 0.888802 -3.26617 -4.29023
185 1 6.32856 10.5458 6.78489 0.888799 -3.26616 -4.29023
186 1 8.35156 12.5688 6.78489 0.888804 -3.26617 -4.29023
187 1 6.32856 12.5688 8.80789 0.888806 -3.26617 -4.29023
188 1 8.35156 10.5458 8.80789 0.888798 -3.26616 -4.29023
189 1 10.3746 10.5458 6.78489 0.888803 -3.26616 -4.29022
190 1 12.3976 12.5688 6.78489 0.888804 -3.26616 -4.29023
191 1 10.3746 12.5688 8.80789 0.888796 -3.26617 -4.29023
192 1 12.3976 10.5458 8.80789 0.888799 -3.26616 -4.29023
193 1 14.4206 14.5918 10.8309 0.8888 -3.26616 -4.29023
194 1 0.259557 0.430761 10.8309 0.888795 -3.26616 -4.29023
195 1 14.4206 0.43076 12.8539 0.888798 -3.26617 -4.29023
196 1 0.259558 14.5918 12.8539 0.888806 -3.26618 -4.29023
197 1 2.28256 14.5918 10.8309 0.888799 -3.26617 -4.29023
198 1 4.30556 0.430761 10.8309 0.888804 -3.26616 -4.29023
199 1 2.28256 0.430761 12.8539 0.888795 -3.26617 -4.29023
200 1 4.30556 14.5918 12.8539 0.888805 -3.26617 -4.29023
201 1 6.32856 14.5918 10.8309 0.888805 -3.26617 -4.29023
202 1 8.35156 0.430761 10.8309 0.888805 -3.26617 -4.29022
203 1 6.32856 0.430761 12.8539 0.8888 -3.26617 -4.29023
204 1 8.35156 14.5918 12.8539 0.888805 -3.26616 -4.29022
205 1 10.3746 14.5918 10.8309 0.888805 -3.26617 -4.29023
206 1 12.3976 0.430761 10.8309 0.888798 -3.26616 -4.29023
207 1 10.3746 0.430761 12.8539 0.888795 -3.26616 -4.29023
208 1 12.3976 14.5918 12.8539 0.888792 -3.26617 -4.29023
209 1 14.4206 2.45376 10.8309 0.888795 -3.26617 -4.29023
210 1 0.259557 4.47676 10.8309 0.888804 -3.26617 -4.29024
211 1 14.4206 4.47676 12.8539 0.888801 -3.26616 -4.29023
212 1 0.259557 2.45376 12.8539 0.888795 -3.26618 -4.29024
213 1 2.28256 2.45376 10.8309 0.888809 -3.26617 -4.29023
214 1 4.30556 4.47676 10.8309 0.8888 -3.26617 -4.29023
215 1 2.28256 4.47676 12.8539 0.888804 -3.26617 -4.29023
216 1 4.30556 2.45376 12.8539 0.888805 -3.26617 -4.29023
217 1 6.32856 2.45376 10.8309 0.888799 -3.26617 -4.29023
218 1 8.35156 4.47676 10.8309 0.888808 -3.26617 -4.29023
219 1 6.32856 4.47676 12.8539 0.888802 -3.26617 -4.29023
220 1 8.35156 2.45376 12.8539 0.888806 -3.26617 -4.29024
221 1 10.3746 2.45376 10.8309 0.888802 -3.26616 -4.29022
222 1 12.3976 4.47676 10.8309 0.888799 -3.26617 -4.29023
223 1 10.3746 4.47676 12.8539 0.888811 -3.26616 -4.29024
224 1 12.3976 2.45376 12.8539 0.888803 -3.26616 -4.29023
225 1 14.4206 6.49976 10.8309 0.888801 -3.26617 -4.29023
226 1 0.259557 8.52276 10.8309 0.888804 -3.26617 -4.29023
227 1 14.4206 8.52276 12.8539 0.888801 -3.26616 -4.29023
228 1 0.259557 6.49976 12.8539 0.888797 -3.26616 -4.29023
229 1 2.28256 6.49976 10.8309 0.888801 -3.26616 -4.29023
230 1 4.30556 8.52276 10.8309 0.888804 -3.26617 -4.29023
231 1 2.28256 8.52276 12.8539 0.888804 -3.26617 -4.29023
232 1 4.30556 6.49976 12.8539 0.888808 -3.26616 -4.29022
233 1 6.32856 6.49976 10.8309 0.888798 -3.26616 -4.29023
234 1 8.35156 8.52276 10.8309 0.888798 -3.26617 -4.29023
235 1 6.32856 8.52276 12.8539 0.888808 -3.26616 -4.29023
236 1 8.35156 6.49976 12.8539 0.888807 -3.26616 -4.29023
237 1 10.3746 6.49976 10.8309 0.888799 -3.26617 -4.29024
238 1 12.3976 8.52276 10.8309 0.888805 -3.26616 -4.29023
239 1 10.3746 8.52276 12.8539 0.888803 -3.26617 -4.29023
240 1 12.3976 6.49976 12.8539 0.888801 -3.26617 -4.29022
241 1 14.4206 10.5458 10.8309 0.888794 -3.26616 -4.29022
242 1 0.259557 12.5688 10.8309 0.888804 -3.26616 -4.29022
243 1 14.4206 12.5688 12.8539 0.888801 -3.26617 -4.29022
244 1 0.259557 10.5458 12.8539 0.888804 -3.26616 -4.29023
245 1 2.28256 10.5458 10.8309 0.8888 -3.26616 -4.29023
246 1 4.30556 12.5688 10.8309 0.888802 -3.26616 -4.29023
247 1 2.28256 12.5688 12.8539 0.8888 -3.26616 -4.29022
248 1 4.30556 10.5458 12.8539 0.888809 -3.26617 -4.29023
249 1 6.32856 10.5458 10.8309 0.888807 -3.26616 -4.29023
250 1 8.35156 12.5688 10.8309 0.888796 -3.26617 -4.29023
251 1 6.32856 12.5688 12.8539 0.888799 -3.26617 -4.29022
252 1 8.35156 10.5458 12.8539 0.888806 -3.26617 -4.29023
253 1 10.3746 10.5458 10.8309 0.888801 -3.26616 -4.29023
254 1 12.3976 12.5688 10.8309 0.888807 -3.26617 -4.29023
255 1 10.3746 12.5688 12.8539 0.888809 -3.26617 -4.29023
256 1 12.3976 10.5458 12.8539 0.888806 -3.26617 -4.29024
