ITEM: TIMESTEP
76000000
ITEM: NUMBER OF ATOMS
256
ITEM: BOX BOUNDS pp pp pp
0.0000000000000000e+00 1.6184000000000001e+01
0.0000000000000000e+00 1.6184000000000001e+01
0.0000000000000000e+00 1.6184000000000001e+01
ITEM: ATOMS id type x y z vx vy vz
1 1 14.4039 12.8289 14.7627 0.842448 -3.09585 -4.06653
2 1 0.242865 14.8519 14.7627 0.842446 -3.09586 -4.06652
3 1 14.4039 14.8519 0.601738 0.842452 -3.09586 -4.06652
4 1 0.242865 12.8289 0.601738 0.842454 -3.09586 -4.06653
5 1 2.26587 12.8289 14.7627 0.842457 -3.09585 -4.06652
6 1 4.28887 14.8519 14.7627 0.842449 -3.09586 -4.06653
7 1 2.26587 14.8519 0.601738 0.842457 -3.09586 -4.06653
8 1 4.28887 12.8289 0.601738 0.842455 -3.09585 -4.06653
9 1 6.31187 12.8289 14.7627 0.842458 -3.09586 -4.06654
10 1 8.33487 14.8519 14.7627 0.842449 -3.09585 -4.06653
11 1 6.31187 14.8519 0.601738 0.842455 -3.09586 -4.06652
12 1 8.33487 12.8289 0.601738 0.842461 -3.09586 -4.06654
13 1 10.3579 12.8289 14.7627 0.84246 -3.09586 -4.06653
14 1 12.3809 14.8519 14.7627 0.842462 -3.09586 -4.06652
15 1 10.3579 14.8519 0.601738 0.842459 -3.09586 -4.06652
16 1 12.3809 12.8289 0.601738 0.842456 -3.09586 -4.06653
17 1 14.4039 0.69086 14.7627 0.84245 -3.09587 -4.06652
18 1 0.242866 2.71386 14.7627 0.842454 -3.09587 -4.06652
19 1 14.4039 2.71386 0.601737 0.842453 -3.09586 -4.06651
20 1 0.242866 0.69086 0.601737 0.842453 -3.09586 -4.06651
21 1 2.26587 0.69086 14.7627 0.842451 -3.09586 -4.06652
22 1 4.28887 2.71386 14.7627 0.842454 -3.09587 -4.06652
23 1 2.26587 2.71386 0.601737 0.842447 -3.09586 -4.06652
24 1 4.28887 0.69086 0.601737 0.842453 -3.09586 -4.06652
25 1 6.31187 0.690859 14.7627 0.84246 -3.09586 -4.06653
26 1 8.33487 2.71386 14.7627 0.842456 -3.09585 -4.06652
27 1 6.31187 2.71386 0.601738 0.842454 -3.09586 -4.06652
28 1 8.33487 0.69086 0.601738 0.842448 -3.09586 -4.06653
29 1 10.3579 0.690859 14.7627 0.842451 -3.09586 -4.06651
30 1 12.3809 2.71386 14.7627 0.842458 -3.09585 -4.06652
31 1 10.3579 2.71386 0.601738 0.842459 -3.09586 -4.06652
32 1 12.3809 0.69086 0.601738 0.842455 -3.09586 -4.06651
33 1 14.4039 4.73686 14.7627 0.842451 -3.09587 -4.06652
34 1 0.242866 6.75986 14.7627 0.842452 -3.09586 -4.06652
35 1 14.4039 6.75986 0.601738 0.842451 -3.09586 -4.06653
36 1 0.242866 4.73686 0.601737 0.842454 -3.09585 -4.06651
37 1 2.26587 4.73686 14.7627 0.84245 -3.09587 -4.06651
38 1 4.28887 6.75986 14.7627 0.842454 -3.09586 -4.06652
39 1 2.26587 6.75986 0.601738 0.842449 -3.09586 -4.06651
40 1 4.28887 4.73686 0.601737 0.842457 -3.09586 -4.06651
41 1 6.31187 4.73686 14.7627 0.842455 -3.09586 -4.06652
42 1 8.33487 6.75986 14.7627 0.842456 -3.09587 -4.06653
43 1 6.31187 6.75986 0.601738 0.842454 -3.09586 -4.06652
44 1 8.33487 4.73686 0.601738 0.842461 -3.09585 -4.06653
45 1 10.3579 4.73686 14.7627 0.842452 -3.09586 -4.06652
46 1 12.3809 6.75986 14.7627 0.842454 -3.09586 -4.06653
47 1 10.3579 6.75986 0.601738 0.842457 -3.09586 -4.06652
48 1 12.3809 4.73686 0.601737 0.842451 -3.09586 -4.06653
49 1 14.4039 8.78286 14.7627 0.842461 -3.09586 -4.06653
50 1 0.242865 10.8059 14.7627 0.842451 -3.09586 -4.06653
51 1 14.4039 10.8059 0.601738 0.842458 -3.09586 -4.06652
52 1 0.242866 8.78286 0.601738 0.842457 -3.09586 -4.06652
53 1 2.26587 8.78286 14.7627 0.842459 -3.09586 -4.06653
54 1 4.28887 10.8059 14.7627 0.842456 -3.09587 -4.06652
55 1 2.26587 10.8059 0.601738 0.842454 -3.09586 -4.06653
56 1 4.28887 8.78286 0.601738 0.842443 -3.09586 -4.06653
57 1 6.31187 8.78286 14.7627 0.842455 -3.09586 -4.06653
58 1 8.33487 10.8059 14.7627 0.842461 -3.09586 -4.06653
59 1 6.31187 10.8059 0.601738 0.842464 -3.09586 -4.06654
60 1 8.33487 8.78286 0.601738 0.842456 -3.09586 -4.06653
61 1 10.3579 8.78286 14.7627 0.842449 -3.09587 -4.06653
62 1 12.3809 10.8059 14.7627 0.842459 -3.09586 -4.06654
63 1 10.3579 10.8059 0.601738 0.842462 -3.09586 -4.06654
64 1 12.3809 8.78286 0.601738 0.842456 -3.09586 -4.06653
65 1 14.4039 12.8289 2.62474 0.842457 -3.09586 -4.06652
66 1 0.242865 14.8519 2.62474 0.842468 -3.09586 -4.06652
67 1 14.4039 14.8519 4.64774 0.842462 -3.09586 -4.06653
68 1 0.242865 12.8289 4.64774 0.84247 -3.09586 -4.06652
69 1 2.26587 12.8289 2.62474 0.842461 -3.09586 -4.06652
70 1 4.28887 14.8519 2.62474 0.842466 -3.09586 -4.06652
71 1 2.26587 14.8519 4.64774 0.84246 -3.09586 -4.06651
72 1 4.28887 12.8289 4.64774 0.842455 -3.09586 -4.06653
73 1 6.31187 12.8289 2.62474 0.842461 -3.09586 -4.06653
74 1 8.33487 14.8519 2.62474 0.842453 -3.09585 -4.06654
75 1 6.31187 14.8519 4.64774 0.842462 -3.09586 -4.06653
76 1 8.33487 12.8289 4.64774 0.842459 -3.09586 -4.06653
77 1 10.3579 12.8289 2.62474 0.842455 -3.09586 -4.06654
78 1 12.3809 14.8519 2.62474 0.842458 -3.09586 -4.06652
79 1 10.3579 14.8519 4.64774 0.842447 -3.09587 -4.06653
80 1 12.3809 12.8289 4.64774 0.842457 -3.09586 -4.06653
81 1 14.4039 0.69086 2.62474 0.842455 -3.09586 -4.06652
82 1 0.242865 2.71386 2.62474 0.842456 -3.09587 -4.06651
83 1 14.4039 2.71386 4.64774 0.842452 -3.09586 -4.06652
84 1 0.242865 0.690859 4.64774 0.842465 -3.09585 -4.06652
85 1 2.26587 0.69086 2.62474 0.842457 -3.09587 -4.06652
86 1 4.28887 2.71386 2.62474 0.842457 -3.09586 -4.06652
87 1 2.26587 2.71386 4.64774 0.842459 -3.09586 -4.06652
88 1 4.28887 0.69086 4.64774 0.842462 -3.09585 -4.06652
89 1 6.31187 0.69086 2.62474 0.842461 -3.09586 -4.06652
90 1 8.33487 2.71386 2.62474 0.842452 -3.09586 -4.06653
91 1 6.31187 2.71386 4.64774 0.842469 -3.09585 -4.06653
92 1 8.33487 0.69086 4.64774 0.842457 -3.09586 -4.06653
93 1 10.3579 0.69086 2.62474 0.842451 -3.09586 -4.06652
94 1 12.3809 2.71386 2.62474 0.842454 -3.09585 -4.06651
95 1 10.3579 2.71386 4.64774 0.842451 -3.09586 -4.06652
96 1 12.3809 0.690859 4.64774 0.842439 -3.09586 -4.06652
97 1 14.4039 4.73686 2.62474 0.842451 -3.09586 -4.06651
98 1 0.242866 6.75986 2.62474 0.842454 -3.09586 -4.06653
99 1 14.4039 6.75986 4.64774 0.842462 -3.09586 -4.06652
100 1 0.242865 4.73686 4.64774 0.842453 -3.09586 -4.06652
101 1 2.26587 4.73686 2.62474 0.842455 -3.09586 -4.06652
102 1 4.28887 6.75986 2.62474 0.842449 -3.09586 -4.06653
103 1 2.26587 6.75986 4.64774 0.842451 -3.09585 -4.06653
104 1 4.28887 4.73686 4.64774 0.842456 -3.09585 -4.06652
105 1 6.31187 4.73686 2.62474 0.842451 -3.09586 -4.06652
106 1 8.33487 6.75986 2.62474 0.842462 -3.09587 -4.06653
107 1 6.31187 6.75986 4.64774 0.842458 -3.09585 -4.06652
108 1 8.33487 4.73686 4.64774 0.842451 -3.09585 -4.06652
109 1 10.3579 4.73686 2.62474 0.842464 -3.09586 -4.06652
110 1 12.3809 6.75986 2.62474 0.84246 -3.09586 -4.06653
111 1 10.3579 6.75986 4.64774 0.842468 -3.09585 -4.06653
112 1 12.3809 4.73686 4.64774 0.842458 -3.09586 -4.06652
113 1 14.4039 8.78286 2.62474 0.842457 -3.09586 -4.06653
114 1 0.242865 10.8059 2.62474 0.842454 -3.09586 -4.06652
115 1 14.4039 10.8059 4.64774 0.842466 -3.09585 -4.06653
116 1 0.242865 8.78286 4.64774 0.84246 -3.09585 -4.06653
117 1 2.26587 8.78286 2.62474 0.842454 -3.09586 -4.06653
118 1 4.28887 10.8059 2.62474 0.842454 -3.09585 -4.06653
119 1 2.26587 10.8059 4.64774 0.842458 -3.09586 -4.06653
120 1 4.28887 8.78286 4.64774 0.842456 -3.09587 -4.06653
121 1 6.31187 8.78286 2.62474 0.84246 -3.09586 -4.06653
122 1 8.33487 10.8059 2.62474 0.842462 -3.09586 -4.06653
123 1 6.31187 10.8059 4.64774 0.842454 -3.09586 -4.06653
124 1 8.33487 8.78286 4.64774 0.842459 -3.09586 -4.06653
125 1 10.3579 8.78286 2.62474 0.842465 -3.09586 -4.06653
126 1 12.3809 10.8059 2.62474 0.842459 -3.09586 -4.06653
127 1 10.3579 10.8059 4.64774 0.842458 -3.09585 -4.06653
128 1 12.3809 8.78286 4.64774 0.84247 -3.09586 -4.06652
129 1 14.4039 12.8289 6.67074 0.842458 -3.09585 -4.06653
130 1 0.242865 14.8519 6.67074 0.842457 -3.09585 -4.06652
131 1 14.4039 14.8519 8.69374 0.842447 -3.09585 -4.06653
132 1 0.242865 12.8289 8.69374 0.84246 -3.09584 -4.06652
133 1 2.26587 12.8289 6.67074 0.842462 -3.09586 -4.06651
134 1 4.28887 14.8519 6.67074 0.842466 -3.09586 -4.06652
135 1 2.26586 14.8519 8.69374 0.842466 -3.09586 -4.06652
136 1 4.28887 12.8289 8.69374 0.842459 -3.09586 -4.06652
137 1 6.31187 12.8289 6.67074 0.842463 -3.09586 -4.06653
138 1 8.33487 14.8519 6.67074 0.842456 -3.09586 -4.06652
139 1 6.31187 14.8519 8.69374 0.842458 -3.09586 -4.06652
140 1 8.33487 12.8289 8.69374 0.842459 -3.09586 -4.06652
141 1 10.3579 12.8289 6.67074 0.842452 -3.09587 -4.06653
142 1 12.3809 14.8519 6.67074 0.842454 -3.09585 -4.06653
143 1 10.3579 14.8519 8.69374 0.84246 -3.09585 -4.06653
144 1 12.3809 12.8289 8.69374 0.842462 -3.09585 -4.06653
145 1 14.4039 0.690859 6.67074 0.842453 -3.09586 -4.06652
146 1 0.242865 2.71386 6.67074 0.842455 -3.09586 -4.06652
147 1 14.4039 2.71386 8.69374 0.842457 -3.09586 -4.06653
148 1 0.242865 0.690859 8.69374 0.842461 -3.09586 -4.06653
149 1 2.26587 0.690859 6.67074 0.842467 -3.09587 -4.06652
150 1 4.28887 2.71386 6.67074 0.842463 -3.09585 -4.06652
151 1 2.26587 2.71386 8.69374 0.842458 -3.09586 -4.06652
152 1 4.28887 0.690859 8.69374 0.842462 -3.09585 -4.06652
153 1 6.31187 0.690859 6.67074 0.84246 -3.09586 -4.06652
154 1 8.33487 2.71386 6.67074 0.84245 -3.09584 -4.06653
155 1 6.31187 2.71386 8.69374 0.842457 -3.09585 -4.06652
156 1 8.33487 0.690859 8.69374 0.842449 -3.09585 -4.06653
157 1 10.3579 0.690859 6.67074 0.842454 -3.09586 -4.06653
158 1 12.3809 2.71386 6.67074 0.842455 -3.09587 -4.06652
159 1 10.3579 2.71386 8.69374 0.842451 -3.09585 -4.06653
160 1 12.3809 0.690859 8.69374 0.842454 -3.09585 -4.06653
161 1 14.4039 4.73686 6.67074 0.842465 -3.09586 -4.06651
162 1 0.242865 6.75986 6.67074 0.842461 -3.09585 -4.06652
163 1 14.4039 6.75986 8.69374 0.842456 -3.09585 -4.06651
164 1 0.242865 4.73686 8.69374 0.842457 -3.09586 -4.06652
165 1 2.26587 4.73686 6.67074 0.842456 -3.09585 -4.06652
166 1 4.28887 6.75986 6.67074 0.84245 -3.09586 -4.06653
167 1 2.26587 6.75986 8.69374 0.84245 -3.09586 -4.06652
168 1 4.28887 4.73686 8.69374 0.842457 -3.09586 -4.06652
169 1 6.31187 4.73686 6.67074 0.842463 -3.09585 -4.06653
170 1 8.33487 6.75986 6.67074 0.842461 -3.09585 -4.06653
171 1 6.31187 6.75986 8.69374 0.842449 -3.09585 -4.06653
172 1 8.33487 4.73686 8.69374 0.842453 -3.09585 -4.06653
173 1 10.3579 4.73686 6.67074 0.842459 -3.09585 -4.06652
174 1 12.3809 6.75986 6.67074 0.842461 -3.09586 -4.06652
175 1 10.3579 6.75986 8.69374 0.842457 -3.09585 -4.06652
176 1 12.3809 4.73686 8.69374 0.842455 -3.09586 -4.06652
177 1 14.4039 8.78286 6.67074 0.842467 -3.09585 -4.06652
178 1 0.242865 10.8059 6.67074 0.84245 -3.09585 -4.06653
179 1 14.4039 10.8059 8.69374 0.842465 -3.09586 -4.06653
180 1 0.242865 8.78286 8.69374 0.842456 -3.09585 -4.06652
181 1 2.26587 8.78286 6.67074 0.842456 -3.09585 -4.06653
182 1 4.28887 10.8059 6.67074 0.842457 -3.09586 -4.06653
183 1 2.26587 10.8059 8.69374 0.84246 -3.09585 -4.06652
184 1 4.28887 8.78286 8.69374 0.842455 -3.09584 -4.06653
185 1 6.31187 8.78286 6.67074 0.84245 -3.09585 -4.06654
186 1 8.33487 10.8059 6.67074 0.842463 -3.09587 -4.06654
187 1 6.31187 10.8059 8.69374 0.842462 -3.09586 -4.06653
188 1 8.33487 8.78286 8.69374 0.84246 -3.09584 -4.06652
189 1 10.3579 8.78286 6.67074 0.84246 -3.09585 -4.06652
190 1 12.3809 10.8059 6.67074 0.842462 -3.09585 -4.06652
191 1 10.3579 10.8059 8.69374 0.84245 -3.09585 -4.06652
192 1 12.3809 8.78286 8.69374 0.842458 -3.09585 -4.06652
193 1 14.4039 12.8289 10.7167 0.842455 -3.09584 -4.06653
194 1 0.242865 14.8519 10.7167 0.842456 -3.09585 -4.06652
195 1 14.4039 14.8519 12.7397 0.842451 -3.09585 -4.06653
196 1 0.242865 12.8289 12.7397 0.842458 -3.09585 -4.06653
197 1 2.26587 12.8289 10.7167 0.842454 -3.09585 -4.06652
198 1 4.28887 14.8519 10.7167 0.842461 -3.09586 -4.06652
199 1 2.26587 14.8519 12.7397 0.842447 -3.09585 -4.06652
200 1 4.28887 12.8289 12.7397 0.842459 -3.09586 -4.06653
201 1 6.31187 12.8289 10.7167 0.84247 -3.09586 -4.06652
202 1 8.33487 14.8519 10.7167 0.842459 -3.09585 -4.06652
203 1 6.31187 14.8519 12.7397 0.842458 -3.09586 -4.06652
204 1 8.33487 12.8289 12.7397 0.842467 -3.09585 -4.06652
205 1 10.3579 12.8289 10.7167 0.842457 -3.09586 -4.06652
206 1 12.3809 14.8519 10.7167 0.842452 -3.09586 -4.06653
207 1 10.3579 14.8519 12.7397 0.842453 -3.09585 -4.06653
208 1 12.3809 12.8289 12.7397 0.842455 -3.09586 -4.06653
209 1 14.4039 0.690859 10.7167 0.842445 -3.09585 -4.06652
210 1 0.242865 2.71386 10.7167 0.842453 -3.09586 -4.06653
211 1 14.4039 2.71386 12.7397 0.842455 -3.09586 -4.06652
212 1 0.242866 0.69086 12.7397 0.842451 -3.09586 -4.06652
213 1 2.26587 0.690859 10.7167 0.842463 -3.09586 -4.06652
214 1 4.28887 2.71386 10.7167 0.842454 -3.09586 -4.06652
215 1 2.26587 2.71386 12.7397 0.842454 -3.09586 -4.06652
216 1 4.28887 0.69086 12.7397 0.842453 -3.09585 -4.06652
217 1 6.31187 0.690859 10.7167 0.842463 -3.09585 -4.06652
218 1 8.33487 2.71386 10.7167 0.842451 -3.09586 -4.06653
219 1 6.31187 2.71386 12.7397 0.842459 -3.09586 -4.06652
220 1 8.33487 0.690859 12.7397 0.842461 -3.09586 -4.06652
221 1 10.3579 0.690859 10.7167 0.842461 -3.09585 -4.06653
222 1 12.3809 2.71386 10.7167 0.842447 -3.09586 -4.06652
223 1 10.3579 2.71386 12.7397 0.842451 -3.09586 -4.06652
224 1 12.3809 0.69086 12.7397 0.842458 -3.09585 -4.06651
225 1 14.4039 4.73686 10.7167 0.842462 -3.09586 -4.06652
226 1 0.242866 6.75986 10.7167 0.842455 -3.09585 -4.06651
227 1 14.4039 6.75986 12.7397 0.842454 -3.09586 -4.06653
228 1 0.242866 4.73686 12.7397 0.842449 -3.09586 -4.06652
229 1 2.26587 4.73686 10.7167 0.842457 -3.09586 -4.06651
230 1 4.28887 6.75986 10.7167 0.842458 -3.09585 -4.06651
231 1 2.26587 6.75986 12.7397 0.842455 -3.09586 -4.06652
232 1 4.28887 4.73686 12.7397 0.84245 -3.09586 -4.06652
233 1 6.31187 4.73686 10.7167 0.842452 -3.09585 -4.06653
234 1 8.33487 6.75986 10.7167 0.842448 -3.09586 -4.06652
235 1 6.31187 6.75986 12.7397 0.842448 -3.09586 -4.06652
236 1 8.33487 4.73686 12.7397 0.842458 -3.09585 -4.06652
237 1 10.3579 4.73686 10.7167 0.842453 -3.09586 -4.06652
238 1 12.3809 6.75986 10.7167 0.842463 -3.09586 -4.06652
239 1 10.3579 6.75986 12.7397 0.842451 -3.09586 -4.06653
240 1 12.3809 4.73686 12.7397 0.842454 -3.09586 -4.06652
241 1 14.4039 8.78286 10.7167 0.842454 -3.09586 -4.06652
242 1 0.242865 10.8059 10.7167 0.842461 -3.09586 -4.06652
243 1 14.4039 10.8059 12.7397 0.842461 -3.09586 -4.06653
244 1 0.242865 8.78286 12.7397 0.842453 -3.09585 -4.06653
245 1 2.26587 8.78286 10.7167 0.842456 -3.09586 -4.06652
246 1 4.28887 10.8059 10.7167 0.842456 -3.09585 -4.06653
247 1 2.26587 10.8059 12.7397 0.842455 -3.09586 -4.06653
248 1 4.28887 8.78286 12.7397 0.842452 -3.09586 -4.06653
249 1 6.31187 8.78286 10.7167 0.842462 -3.09586 -4.06652
250 1 8.33487 10.8059 10.7167 0.842455 -3.09586 -4.06653
251 1 6.31187 10.8059 12.7397 0.842455 -3.09585 -4.06653
252 1 8.33487 8.78286 12.7397 0.842447 -3.09587 -4.06652
253 1 10.3579 8.78286 10.7167 0.842457 -3.09586 -4.06653
254 1 12.3809 10.8059 10.7167 0.842458 -3.09586 -4.06653
255 1 10.3579 10.8059 12.7397 0.842459 -3.09586 -4.06653
256 1 12.3809 8.78286 12.7397 0.842459 -3.09586 -4.06654
