ITEM: TIMESTEP
66000000
ITEM: NUMBER OF ATOMS
256
ITEM: BOX BOUNDS pp pp pp
0.0000000000000000e+00 1.6184000000000001e+01
0.0000000000000000e+00 1.6184000000000001e+01
0.0000000000000000e+00 1.6184000000000001e+01
ITEM: ATOMS id type x y z vx vy vz
1 1 13.6478 6.54963 1.76881 0.842478 -3.09593 -4.06664
2 1 15.6708 8.57263 1.76881 0.842489 -3.09594 -4.06664
3 1 13.6478 8.57263 3.79181 0.842478 -3.09594 -4.06663
4 1 15.6708 6.54963 3.79181 0.842475 -3.09594 -4.06664
5 1 1.50976 6.54963 1.76881 0.842478 -3.09594 -4.06663
6 1 3.53276 8.57263 1.76881 0.842478 -3.09594 -4.06662
7 1 1.50976 8.57263 3.79181 0.842486 -3.09593 -4.06663
8 1 3.53276 6.54963 3.79181 0.842476 -3.09594 -4.06663
9 1 5.55576 6.54963 1.76881 0.842484 -3.09595 -4.06662
10 1 7.57876 8.57263 1.76881 0.842481 -3.09593 -4.06663
11 1 5.55576 8.57263 3.79181 0.842482 -3.09594 -4.06662
12 1 7.57876 6.54963 3.79181 0.842481 -3.09595 -4.06662
13 1 9.60176 6.54963 1.76881 0.842474 -3.09594 -4.06663
14 1 11.6248 8.57263 1.76881 0.84248 -3.09593 -4.06664
15 1 9.60176 8.57263 3.79181 0.842472 -3.09594 -4.06663
16 1 11.6248 6.54963 3.79181 0.842479 -3.09594 -4.06662
17 1 13.6478 10.5956 1.76881 0.842477 -3.09593 -4.06664
18 1 15.6708 12.6186 1.76881 0.842484 -3.09594 -4.06664
19 1 13.6478 12.6186 3.79181 0.842482 -3.09594 -4.06663
20 1 15.6708 10.5956 3.79181 0.84248 -3.09593 -4.06663
21 1 1.50976 10.5956 1.76881 0.84248 -3.09593 -4.06663
22 1 3.53276 12.6186 1.76881 0.84248 -3.09593 -4.06663
23 1 1.50976 12.6186 3.79181 0.842477 -3.09594 -4.06663
24 1 3.53276 10.5956 3.79181 0.842481 -3.09594 -4.06662
25 1 5.55576 10.5956 1.76881 0.842486 -3.09593 -4.06662
26 1 7.57876 12.6186 1.76881 0.842472 -3.09594 -4.06663
27 1 5.55576 12.6186 3.79181 0.842481 -3.09594 -4.06663
28 1 7.57876 10.5956 3.79181 0.842483 -3.09594 -4.06663
29 1 9.60176 10.5956 1.76881 0.842476 -3.09594 -4.06664
30 1 11.6248 12.6186 1.76881 0.842472 -3.09594 -4.06663
31 1 9.60176 12.6186 3.79181 0.842479 -3.09594 -4.06663
32 1 11.6248 10.5956 3.79181 0.842479 -3.09593 -4.06663
33 1 13.6478 14.6416 1.76881 0.842481 -3.09595 -4.06663
34 1 15.6708 0.480628 1.76881 0.842479 -3.09594 -4.06663
35 1 13.6478 0.480628 3.79181 0.842487 -3.09594 -4.06663
36 1 15.6708 14.6416 3.79181 0.842481 -3.09595 -4.06663
37 1 1.50976 14.6416 1.76881 0.842474 -3.09595 -4.06664
38 1 3.53276 0.480628 1.76881 0.842476 -3.09594 -4.06663
39 1 1.50976 0.480628 3.79181 0.842478 -3.09594 -4.06663
40 1 3.53276 14.6416 3.79181 0.842476 -3.09593 -4.06663
41 1 5.55576 14.6416 1.76881 0.842483 -3.09593 -4.06663
42 1 7.57876 0.480628 1.76881 0.842486 -3.09593 -4.06664
43 1 5.55576 0.480629 3.79181 0.842473 -3.09593 -4.06664
44 1 7.57876 14.6416 3.79181 0.842481 -3.09594 -4.06663
45 1 9.60176 14.6416 1.76881 0.842477 -3.09594 -4.06662
46 1 11.6248 0.480628 1.76881 0.842491 -3.09594 -4.06662
47 1 9.60176 0.480628 3.79181 0.842488 -3.09594 -4.06664
48 1 11.6248 14.6416 3.79181 0.84248 -3.09594 -4.06663
49 1 13.6478 2.50363 1.76881 0.842483 -3.09594 -4.06663
50 1 15.6708 4.52663 1.76881 0.842479 -3.09594 -4.06663
51 1 13.6478 4.52663 3.79181 0.842477 -3.09593 -4.06663
52 1 15.6708 2.50363 3.79181 0.842481 -3.09594 -4.06663
53 1 1.50976 2.50363 1.76881 0.842474 -3.09594 -4.06663
54 1 3.53276 4.52663 1.76881 0.842472 -3.09594 -4.06664
55 1 1.50976 4.52663 3.79181 0.842481 -3.09593 -4.06663
56 1 3.53276 2.50363 3.79181 0.842467 -3.09594 -4.06664
57 1 5.55576 2.50363 1.76881 0.842475 -3.09594 -4.06664
58 1 7.57876 4.52663 1.76881 0.842474 -3.09595 -4.06663
59 1 5.55576 4.52663 3.79181 0.842481 -3.09594 -4.06663
60 1 7.57876 2.50363 3.79181 0.842483 -3.09595 -4.06664
61 1 9.60176 2.50363 1.76881 0.842487 -3.09594 -4.06662
62 1 11.6248 4.52663 1.76881 0.842484 -3.09594 -4.06663
63 1 9.60176 4.52663 3.79181 0.842482 -3.09594 -4.06662
64 1 11.6248 2.50363 3.79181 0.842482 -3.09594 -4.06663
65 1 13.6478 6.54963 5.81481 0.842476 -3.09594 -4.06664
66 1 15.6708 8.57263 5.81481 0.842475 -3.09594 -4.06663
67 1 13.6478 8.57263 7.83781 0.842471 -3.09594 -4.06663
68 1 15.6708 6.54963 7.83781 0.842481 -3.09594 -4.06663
69 1 1.50976 6.54963 5.81481 0.842472 -3.09594 -4.06663
70 1 3.53276 8.57263 5.81481 0.842478 -3.09594 -4.06663
71 1 1.50976 8.57263 7.83781 0.842474 -3.09594 -4.06664
72 1 3.53276 6.54963 7.83781 0.842476 -3.09594 -4.06663
73 1 5.55576 6.54963 5.81481 0.842476 -3.09594 -4.06663
74 1 7.57876 8.57263 5.81481 0.842479 -3.09594 -4.06662
75 1 5.55576 8.57263 7.83781 0.842479 -3.09594 -4.06663
76 1 7.57876 6.54963 7.83781 0.842473 -3.09594 -4.06663
77 1 9.60176 6.54963 5.81481 0.842474 -3.09594 -4.06663
78 1 11.6248 8.57263 5.81481 0.842481 -3.09593 -4.06663
79 1 9.60176 8.57263 7.83781 0.842483 -3.09593 -4.06663
80 1 11.6248 6.54963 7.83781 0.842478 -3.09594 -4.06662
81 1 13.6478 10.5956 5.81481 0.842477 -3.09594 -4.06663
82 1 15.6708 12.6186 5.81481 0.84248 -3.09594 -4.06663
83 1 13.6478 12.6186 7.83781 0.842478 -3.09593 -4.06663
84 1 15.6708 10.5956 7.83781 0.84247 -3.09594 -4.06663
85 1 1.50976 10.5956 5.81481 0.842474 -3.09594 -4.06664
86 1 3.53276 12.6186 5.81481 0.842481 -3.09594 -4.06664
87 1 1.50976 12.6186 7.83781 0.842486 -3.09594 -4.06663
88 1 3.53276 10.5956 7.83781 0.842476 -3.09594 -4.06664
89 1 5.55576 10.5956 5.81481 0.842479 -3.09594 -4.06662
90 1 7.57876 12.6186 5.81481 0.842478 -3.09593 -4.06663
91 1 5.55576 12.6186 7.83781 0.842479 -3.09595 -4.06663
92 1 7.57876 10.5956 7.83781 0.842475 -3.09594 -4.06664
93 1 9.60176 10.5956 5.81481 0.842478 -3.09593 -4.06662
94 1 11.6248 12.6186 5.81481 0.842481 -3.09594 -4.06664
95 1 9.60176 12.6186 7.83781 0.842478 -3.09593 -4.06663
96 1 11.6248 10.5956 7.83781 0.842479 -3.09594 -4.06663
97 1 13.6478 14.6416 5.81481 0.842484 -3.09594 -4.06662
98 1 15.6708 0.480628 5.81481 0.842485 -3.09594 -4.06663
99 1 13.6478 0.480628 7.83781 0.842479 -3.09594 -4.06663
100 1 15.6708 14.6416 7.83781 0.842486 -3.09594 -4.06663
101 1 1.50976 14.6416 5.81481 0.842477 -3.09594 -4.06664
102 1 3.53276 0.480629 5.81481 0.842477 -3.09593 -4.06663
103 1 1.50976 0.480629 7.83781 0.842482 -3.09594 -4.06663
104 1 3.53276 14.6416 7.83781 0.842478 -3.09594 -4.06663
105 1 5.55576 14.6416 5.81481 0.842477 -3.09593 -4.06664
106 1 7.57876 0.480629 5.81481 0.842475 -3.09593 -4.06663
107 1 5.55576 0.480629 7.83781 0.842471 -3.09594 -4.06663
108 1 7.57876 14.6416 7.83781 0.842468 -3.09594 -4.06663
109 1 9.60176 14.6416 5.81481 0.842478 -3.09594 -4.06664
110 1 11.6248 0.480628 5.81481 0.842474 -3.09593 -4.06663
111 1 9.60176 0.480629 7.83781 0.842469 -3.09595 -4.06663
112 1 11.6248 14.6416 7.83781 0.842487 -3.09594 -4.06664
113 1 13.6478 2.50363 5.81481 0.842484 -3.09594 -4.06663
114 1 15.6708 4.52663 5.81481 0.842478 -3.09593 -4.06663
115 1 13.6478 4.52663 7.83781 0.842481 -3.09594 -4.06664
116 1 15.6708 2.50363 7.83781 0.842481 -3.09594 -4.06663
117 1 1.50976 2.50363 5.81481 0.842484 -3.09594 -4.06663
118 1 3.53276 4.52663 5.81481 0.842473 -3.09594 -4.06663
119 1 1.50976 4.52663 7.83781 0.842476 -3.09594 -4.06663
120 1 3.53276 2.50363 7.83781 0.842483 -3.09593 -4.06663
121 1 5.55576 2.50363 5.81481 0.842471 -3.09594 -4.06664
122 1 7.57876 4.52663 5.81481 0.84248 -3.09595 -4.06663
123 1 5.55576 4.52663 7.83781 0.84248 -3.09594 -4.06663
124 1 7.57876 2.50363 7.83781 0.842476 -3.09594 -4.06663
125 1 9.60176 2.50363 5.81481 0.842482 -3.09595 -4.06662
126 1 11.6248 4.52663 5.81481 0.842477 -3.09594 -4.06664
127 1 9.60176 4.52663 7.83781 0.842478 -3.09593 -4.06663
128 1 11.6248 2.50363 7.83781 0.842483 -3.09594 -4.06663
129 1 13.6478 6.54963 9.86081 0.842473 -3.09594 -4.06663
130 1 15.6708 8.57263 9.86081 0.842482 -3.09594 -4.06663
131 1 13.6478 8.57263 11.8838 0.84248 -3.09594 -4.06663
132 1 15.6708 6.54963 11.8838 0.842484 -3.09594 -4.06663
133 1 1.50976 6.54963 9.86081 0.842478 -3.09594 -4.06663
134 1 3.53276 8.57263 9.86081 0.842477 -3.09594 -4.06664
135 1 1.50976 8.57263 11.8838 0.842482 -3.09594 -4.06663
136 1 3.53276 6.54963 11.8838 0.842473 -3.09594 -4.06663
137 1 5.55576 6.54963 9.86081 0.842476 -3.09594 -4.06663
138 1 7.57876 8.57263 9.86081 0.842477 -3.09594 -4.06663
139 1 5.55576 8.57263 11.8838 0.842479 -3.09593 -4.06663
140 1 7.57876 6.54963 11.8838 0.842475 -3.09594 -4.06662
141 1 9.60176 6.54963 9.86081 0.842476 -3.09594 -4.06663
142 1 11.6248 8.57263 9.86081 0.842474 -3.09594 -4.06662
143 1 9.60176 8.57263 11.8838 0.842473 -3.09594 -4.06663
144 1 11.6248 6.54963 11.8838 0.842481 -3.09594 -4.06663
145 1 13.6478 10.5956 9.86081 0.842482 -3.09594 -4.06663
146 1 15.6708 12.6186 9.86081 0.842479 -3.09594 -4.06664
147 1 13.6478 12.6186 11.8838 0.842479 -3.09594 -4.06664
148 1 15.6708 10.5956 11.8838 0.842488 -3.09594 -4.06663
149 1 1.50976 10.5956 9.86081 0.842472 -3.09594 -4.06663
150 1 3.53276 12.6186 9.86081 0.842476 -3.09594 -4.06664
151 1 1.50976 12.6186 11.8838 0.842482 -3.09594 -4.06664
152 1 3.53276 10.5956 11.8838 0.842482 -3.09594 -4.06664
153 1 5.55576 10.5956 9.86081 0.842483 -3.09594 -4.06664
154 1 7.57876 12.6186 9.86081 0.842478 -3.09594 -4.06663
155 1 5.55576 12.6186 11.8838 0.842475 -3.09594 -4.06663
156 1 7.57876 10.5956 11.8838 0.842475 -3.09594 -4.06663
157 1 9.60176 10.5956 9.86081 0.842482 -3.09593 -4.06663
158 1 11.6248 12.6186 9.86081 0.842479 -3.09594 -4.06663
159 1 9.60176 12.6186 11.8838 0.842482 -3.09594 -4.06663
160 1 11.6248 10.5956 11.8838 0.842476 -3.09594 -4.06663
161 1 13.6478 14.6416 9.86081 0.842481 -3.09593 -4.06664
162 1 15.6708 0.480628 9.86081 0.842477 -3.09594 -4.06664
163 1 13.6478 0.480628 11.8838 0.842477 -3.09594 -4.06664
164 1 15.6708 14.6416 11.8838 0.842481 -3.09595 -4.06664
165 1 1.50976 14.6416 9.86081 0.842481 -3.09594 -4.06664
166 1 3.53276 0.480628 9.86081 0.842487 -3.09594 -4.06663
167 1 1.50976 0.480628 11.8838 0.842479 -3.09595 -4.06663
168 1 3.53276 14.6416 11.8838 0.842482 -3.09594 -4.06664
169 1 5.55576 14.6416 9.86081 0.842476 -3.09594 -4.06663
170 1 7.57876 0.480628 9.86081 0.842469 -3.09594 -4.06663
171 1 5.55576 0.480628 11.8838 0.842481 -3.09594 -4.06663
172 1 7.57876 14.6416 11.8838 0.84248 -3.09594 -4.06664
173 1 9.60176 14.6416 9.86081 0.842479 -3.09593 -4.06663
174 1 11.6248 0.480629 9.86081 0.842475 -3.09594 -4.06664
175 1 9.60176 0.480628 11.8838 0.842476 -3.09594 -4.06663
176 1 11.6248 14.6416 11.8838 0.842476 -3.09594 -4.06663
177 1 13.6478 2.50363 9.86081 0.842481 -3.09594 -4.06663
178 1 15.6708 4.52663 9.86081 0.84248 -3.09594 -4.06664
179 1 13.6478 4.52663 11.8838 0.842476 -3.09594 -4.06663
180 1 15.6708 2.50363 11.8838 0.842476 -3.09594 -4.06664
181 1 1.50976 2.50363 9.86081 0.842481 -3.09594 -4.06663
182 1 3.53276 4.52663 9.86081 0.842479 -3.09593 -4.06662
183 1 1.50976 4.52663 11.8838 0.842483 -3.09594 -4.06663
184 1 3.53276 2.50363 11.8838 0.842481 -3.09595 -4.06662
185 1 5.55576 2.50363 9.86081 0.84248 -3.09595 -4.06663
186 1 7.57876 4.52663 9.86081 0.842477 -3.09594 -4.06662
187 1 5.55576 4.52663 11.8838 0.842477 -3.09594 -4.06662
188 1 7.57876 2.50363 11.8838 0.84248 -3.09595 -4.06662
189 1 9.60176 2.50363 9.86081 0.842472 -3.09594 -4.06663
190 1 11.6248 4.52663 9.86081 0.84247 -3.09594 -4.06663
191 1 9.60176 4.52663 11.8838 0.842479 -3.09594 -4.06663
192 1 11.6248 2.50363 11.8838 0.842481 -3.09595 -4.06663
193 1 13.6478 6.54963 13.9068 0.842479 -3.09594 -4.06663
194 1 15.6708 8.57263 13.9068 0.842479 -3.09594 -4.06663
195 1 13.6478 8.57263 15.9298 0.842477 -3.09594 -4.06663
196 1 15.6708 6.54963 15.9298 0.842479 -3.09594 -4.06663
197 1 1.50976 6.54963 13.9068 0.842483 -3.09593 -4.06663
198 1 3.53276 8.57263 13.9068 0.842479 -3.09594 -4.06663
199 1 1.50976 8.57263 15.9298 0.842483 -3.09594 -4.06663
200 1 3.53276 6.54963 15.9298 0.84249 -3.09594 -4.06663
201 1 5.55576 6.54963 13.9068 0.842471 -3.09594 -4.06663
202 1 7.57876 8.57263 13.9068 0.842469 -3.09595 -4.06663
203 1 5.55576 8.57263 15.9298 0.842484 -3.09593 -4.06663
204 1 7.57876 6.54963 15.9298 0.842476 -3.09594 -4.06664
205 1 9.60176 6.54963 13.9068 0.84248 -3.09594 -4.06663
206 1 11.6248 8.57263 13.9068 0.842473 -3.09595 -4.06664
207 1 9.60176 8.57263 15.9298 0.842473 -3.09594 -4.06664
208 1 11.6248 6.54963 15.9298 0.842481 -3.09594 -4.06663
209 1 13.6478 10.5956 13.9068 0.842479 -3.09594 -4.06663
210 1 15.6708 12.6186 13.9068 0.842476 -3.09594 -4.06663
211 1 13.6478 12.6186 15.9298 0.842473 -3.09594 -4.06664
212 1 15.6708 10.5956 15.9298 0.842481 -3.09594 -4.06663
213 1 1.50976 10.5956 13.9068 0.842486 -3.09594 -4.06662
214 1 3.53276 12.6186 13.9068 0.84248 -3.09593 -4.06664
215 1 1.50976 12.6186 15.9298 0.842482 -3.09593 -4.06663
216 1 3.53276 10.5956 15.9298 0.842487 -3.09594 -4.06663
217 1 5.55576 10.5956 13.9068 0.842481 -3.09594 -4.06664
218 1 7.57876 12.6186 13.9068 0.84248 -3.09595 -4.06663
219 1 5.55576 12.6186 15.9298 0.842479 -3.09594 -4.06663
220 1 7.57876 10.5956 15.9298 0.842475 -3.09593 -4.06663
221 1 9.60176 10.5956 13.9068 0.842475 -3.09594 -4.06664
222 1 11.6248 12.6186 13.9068 0.84248 -3.09594 -4.06664
223 1 9.60176 12.6186 15.9298 0.842474 -3.09594 -4.06664
224 1 11.6248 10.5956 15.9298 0.842482 -3.09594 -4.06663
225 1 13.6478 14.6416 13.9068 0.842478 -3.09594 -4.06664
226 1 15.6708 0.480629 13.9068 0.842474 -3.09594 -4.06664
227 1 13.6478 0.480628 15.9298 0.842483 -3.09594 -4.06663
228 1 15.6708 14.6416 15.9298 0.842479 -3.09594 -4.06663
229 1 1.50976 14.6416 13.9068 0.842483 -3.09595 -4.06664
230 1 3.53276 0.480628 13.9068 0.842473 -3.09594 -4.06663
231 1 1.50976 0.480628 15.9298 0.842468 -3.09594 -4.06664
232 1 3.53276 14.6416 15.9298 0.842475 -3.09594 -4.06663
233 1 5.55576 14.6416 13.9068 0.84248 -3.09594 -4.06663
234 1 7.57876 0.480628 13.9068 0.842485 -3.09594 -4.06662
235 1 5.55576 0.480628 15.9298 0.842479 -3.09595 -4.06663
236 1 7.57876 14.6416 15.9298 0.842478 -3.09595 -4.06663
237 1 9.60176 14.6416 13.9068 0.842482 -3.09593 -4.06663
238 1 11.6248 0.480628 13.9068 0.842487 -3.09594 -4.06663
239 1 9.60176 0.480628 15.9298 0.842481 -3.09594 -4.06663
240 1 11.6248 14.6416 15.9298 0.842484 -3.09594 -4.06663
241 1 13.6478 2.50363 13.9068 0.842486 -3.09594 -4.06663
242 1 15.6708 4.52663 13.9068 0.84248 -3.09594 -4.06663
243 1 13.6478 4.52663 15.9298 0.842478 -3.09594 -4.06663
244 1 15.6708 2.50363 15.9298 0.842473 -3.09594 -4.06664
245 1 1.50976 2.50363 13.9068 0.842472 -3.09594 -4.06663
246 1 3.53276 4.52663 13.9068 0.842471 -3.09594 -4.06662
247 1 1.50976 4.52663 15.9298 0.842477 -3.09594 -4.06664
248 1 3.53276 2.50363 15.9298 0.842472 -3.09594 -4.06662
249 1 5.55576 2.50363 13.9068 0.842478 -3.09594 -4.06662
250 1 7.57876 4.52663 13.9068 0.842477 -3.09594 -4.06663
251 1 5.55576 4.52663 15.9298 0.842475 -3.09594 -4.06663
252 1 7.57876 2.50363 15.9298 0.842486 -3.09594 -4.06663
253 1 9.60176 2.50363 13.9068 0.842477 -3.09593 -4.06663
254 1 11.6248 4.52663 13.9068 0.842485 -3.09594 -4.06663
255 1 9.60176 4.52663 15.9298 0.842476 -3.09593 -4.06663
256 1 11.6248 2.50363 15.9298 0.842482 -3.09595 -4.06663
