LAMMPS (23 Jun 2022)
OMP_NUM_THREADS environment is not set. Defaulting to 1 thread. (src/comm.cpp:98)
  using 1 OpenMP thread(s) per MPI task
# 3d metal relaxaction

# initilizing EAM and boundry conditions

units		metal
boundary	p p p

# reading data file containing the configuration

read_data Al_alloy.lmpdat
Reading data file ...
  orthogonal box = (0 0 0) to (80.92 80.92 242.76)
  1 by 1 by 4 MPI processor grid
  reading atoms ...
  96000 atoms
  read_data CPU = 0.105 seconds

# defining potentials and other parameters

pair_style	eam/alloy
pair_coeff	* * Al.eam Al

# Delta t
timestep 0.0005

neighbor	0.3 bin
neigh_modify	delay 5

# dumping configurations at timesteps
dump mydump all custom 2000000 confdump.*.data id type x y z vx vy vz
dump_modify mydump sort id
# set numerical integrator
## NVE; default is velocity Verlet
fix 1 all nvt temp 300.0 300.0 $(100.0*dt)
fix 1 all nvt temp 300.0 300.0 0.050000000000000002776
thermo 10000

run 100000000
Neighbor list info ...
  update every 1 steps, delay 5 steps, check yes
  max neighbors/atom: 2000, page size: 100000
  master list distance cutoff = 6.58721
  ghost atom cutoff = 6.58721
  binsize = 3.293605, bins = 25 25 74
  1 neighbor lists, perpetual/occasional/extra = 1 0 0
  (1) pair eam/alloy, perpetual
      attributes: half, newton on
      pair build: half/bin/atomonly/newton
      stencil: half/bin/3d
      bin: standard
Per MPI rank memory allocation (min/avg/max) = 18.22 | 18.22 | 18.22 Mbytes
   Step          Temp          E_pair         E_mol          TotEng         Press     
         0   0             -322556.55      0             -322556.55      2342.81      
     10000   1.0775954e-09 -322556.55      0             -322556.55      2342.81      
     20000   298.56837     -319260.43      0             -315555.54      9843.6572    
     30000   288.93432     -318502.59      0             -314917.25      14274.169    
     40000   295.82969     -320869.19      0             -317198.28      7670.2331    
     50000   301.63151     -319245.53      0             -315502.64      11043.467    
     60000   300.62603     -320281.43      0             -316551.01      8644.7857    
     70000   304.47138     -320038.78      0             -316260.64      9255.273     
     80000   298.04919     -319770.17      0             -316071.73      9539.811     
     90000   293.57312     -320234.94      0             -316592.04      8645.5861    
    100000   301.93703     -319617.48      0             -315870.79      10017.484    
    110000   298.81947     -319916.47      0             -316208.46      9177.6336    
    120000   303.50397     -320066.63      0             -316300.5       9107.8919    
    130000   300.42506     -319732.33      0             -316004.4       9605.8984    
    140000   301.15082     -319898.05      0             -316161.12      9369.3338    
    150000   298.53834     -320072.14      0             -316367.62      8986.4952    
    160000   300.44806     -319767.46      0             -316039.25      9562.9975    
    170000   300.79504     -319958.56      0             -316226.04      9227.4889    
    180000   298.12327     -320034.94      0             -316335.57      9112.3066    
    190000   302.17232     -319859.62      0             -316110.01      9398.9532    
    200000   301.58346     -319907.99      0             -316165.69      9312.7668    
    210000   300.10767     -320054.96      0             -316330.97      9010.1079    
    220000   300.41764     -319840.97      0             -316113.13      9450.6446    
    230000   300.24719     -319924.26      0             -316198.53      9208.5218    
    240000   301.18999     -319975.93      0             -316238.51      9181.7131    
    250000   299.48607     -319923.41      0             -316207.13      9239.3652    
    260000   299.90176     -319923.02      0             -316201.59      9232.0142    
    270000   297.49653     -319977.49      0             -316285.9       9140.8281    
    280000   299.19207     -319953.58      0             -316240.96      9176.6998    
    290000   299.704       -319919.5       0             -316200.52      9251.9596    
    300000   300.64903     -319966.91      0             -316236.2       9168.3978    
    310000   300.41429     -319977.83      0             -316250.04      9172.5955    
    320000   300.22666     -319941.04      0             -316215.58      9210.82      
    330000   299.86337     -319911.49      0             -316190.53      9246.251     
    340000   300.0782      -319988.47      0             -316264.85      9120.1519    
    350000   299.54666     -319915.48      0             -316198.45      9258.749     
    360000   299.53669     -319962.11      0             -316245.21      9172.5002    
    370000   300.85985     -319936.32      0             -316203         9261.8679    
    380000   301.19576     -319951.15      0             -316213.66      9187.7257    
    390000   300.74114     -319904.94      0             -316173.09      9311.6519    
    400000   300.29525     -319964.39      0             -316238.07      9159.5112    
    410000   301.30783     -319932.6       0             -316193.72      9263.4899    
    420000   300.79729     -319969.72      0             -316237.18      9155.0992    
    430000   300.26729     -319915.32      0             -316189.35      9283.3186    
    440000   299.58223     -320000.33      0             -316282.86      9074.3083    
    450000   299.1965      -319916.43      0             -316203.75      9265.6946    
    460000   300.15516     -319960.37      0             -316235.79      9146.5332    
    470000   301.07823     -319900.51      0             -316164.48      9332.683     
    480000   300.11775     -319966.39      0             -316242.28      9143.6374    
    490000   300.56759     -319904.32      0             -316174.62      9315.9115    
    500000   300.76397     -319979.65      0             -316247.51      9130.2107    
    510000   299.99047     -319915.96      0             -316193.43      9279.9148    
    520000   300.15308     -319971.21      0             -316246.66      9141.5795    
    530000   300.07073     -319899.86      0             -316176.33      9324.3423    
    540000   300.20565     -319986.81      0             -316261.6       9131.5513    
    550000   299.63282     -319903.82      0             -316185.72      9304.7577    
    560000   300.81879     -319985.1       0             -316252.29      9104.4752    
    570000   300.42259     -319906.02      0             -316178.12      9307.5761    
    580000   298.06096     -319980.83      0             -316282.24      9099.2619    
    590000   300.20385     -319919.1       0             -316193.92      9286.1944    
    600000   299.68534     -319976         0             -316257.25      9124.0685    
    610000   300.56293     -319909.26      0             -316179.62      9293.4656    
    620000   298.94621     -319967.46      0             -316257.88      9150.5174    
    630000   300.48295     -319904.93      0             -316176.29      9302.6727    
    640000   298.6004      -319970.65      0             -316265.37      9118.0459    
    650000   300.05144     -319915.01      0             -316191.72      9288.0892    
    660000   299.65057     -319969.22      0             -316250.9       9155.0159    
    670000   299.47616     -319916.44      0             -316200.29      9259.509     
    680000   299.86976     -319968.76      0             -316247.73      9137.2476    
    690000   301.22695     -319918.34      0             -316180.46      9268.0911    
    700000   299.95449     -319961.94      0             -316239.85      9157.1891    
    710000   299.4181      -319920.34      0             -316204.9       9267.4754    
    720000   300.83026     -319955.1       0             -316222.15      9186.6388    
    730000   299.23604     -319918.69      0             -316205.52      9258.3866    
    740000   299.33847     -319960.49      0             -316246.05      9162.4585    
    750000   300.7925      -319931.13      0             -316198.64      9237.8573    
    760000   299.88117     -319962.87      0             -316241.69      9152.4801    
    770000   301.24317     -319939.19      0             -316201.11      9237.1843    
    780000   301.1396      -319960.32      0             -316223.53      9165.5535    
    790000   301.01284     -319932.88      0             -316197.66      9236.2021    
    800000   299.57392     -319960.51      0             -316243.14      9174.8094    
    810000   300.48147     -319944.15      0             -316215.52      9209.8182    
    820000   300.78582     -319960.09      0             -316227.69      9170.3745    
    830000   301.05836     -319928.41      0             -316192.63      9247.0755    
    840000   298.9595      -319942.42      0             -316232.68      9190.9743    
    850000   301.06532     -319930.12      0             -316194.24      9248.336     
    860000   299.44039     -319959.75      0             -316244.05      9164.6197    
    870000   300.77567     -319935.01      0             -316202.73      9231.2349    
    880000   299.60312     -319944.01      0             -316226.28      9205.6407    
    890000   300.57786     -319937.42      0             -316207.59      9239.5477    
    900000   300.15547     -319950.57      0             -316225.99      9189.8891    
    910000   299.59445     -319946.43      0             -316228.81      9199.7486    
    920000   300.06845     -319950.75      0             -316227.24      9169.8413    
    930000   300.15334     -319944.14      0             -316219.58      9211.1252    
    940000   300.11691     -319948.36      0             -316224.26      9207.6163    
    950000   300.52927     -319939.75      0             -316210.52      9225.8983    
    960000   299.55829     -319942.38      0             -316225.21      9196.956     
    970000   300.50605     -319947.39      0             -316218.46      9194.1633    
    980000   300.19495     -319962.29      0             -316237.22      9182.5453    
    990000   301.05194     -319926.78      0             -316191.07      9245.5308    
   1000000   300.7203      -319945.09      0             -316213.5       9202.8475    
   1010000   299.73842     -319942.27      0             -316222.86      9190.2386    
   1020000   300.92956     -319934.83      0             -316200.64      9226.8723    
   1030000   299.53285     -319938.13      0             -316221.27      9207.8861    
   1040000   299.95209     -319941.1       0             -316219.04      9200.8078    
   1050000   300.15608     -319942.23      0             -316217.64      9205.3087    
   1060000   300.91589     -319934.78      0             -316200.77      9226.3497    
   1070000   301.32444     -319951.49      0             -316212.4       9200.7216    
   1080000   299.35515     -319946.32      0             -316231.67      9192.8421    
   1090000   300.45907     -319942.71      0             -316214.36      9209.1071    
   1100000   299.84258     -319940.1       0             -316219.4       9203.827     
   1110000   299.85507     -319938.69      0             -316217.83      9214.8453    
   1120000   299.36788     -319943.92      0             -316229.11      9187.6892    
   1130000   300.73883     -319961.58      0             -316229.76      9164.3304    
   1140000   300.87361     -319936.22      0             -316202.73      9212.9548    
   1150000   299.25282     -319944.17      0             -316230.79      9189.7246    
   1160000   299.45728     -319946.2       0             -316230.28      9191.6522    
   1170000   299.66055     -319947.78      0             -316229.34      9170.199     
   1180000   300.95994     -319942.44      0             -316207.87      9212.2646    
   1190000   300.27317     -319943.57      0             -316217.52      9194.7537    
   1200000   299.85666     -319933.95      0             -316213.08      9224.872     
   1210000   300.20274     -319950.2       0             -316225.03      9179.3223    
   1220000   300.32842     -319930.32      0             -316203.6       9210.4234    
   1230000   299.49626     -319943.04      0             -316226.64      9192.6297    
   1240000   299.1205      -319935.26      0             -316223.52      9197.6946    
   1250000   298.34762     -319953.52      0             -316251.37      9157.2965    
   1260000   299.58841     -319945.74      0             -316228.19      9196.926     
   1270000   300.61778     -319943.65      0             -316213.34      9211.711     
   1280000   300.41436     -319928.46      0             -316200.66      9231.1794    
   1290000   300.11984     -319938.07      0             -316213.93      9211.4903    
   1300000   300.17164     -319943.75      0             -316218.97      9203.7615    
   1310000   300.15868     -319954.35      0             -316229.73      9171.6952    
   1320000   300.63958     -319948.43      0             -316217.84      9191.4722    
   1330000   300.26379     -319951.47      0             -316225.55      9186.7799    
   1340000   299.5761      -319937.7       0             -316220.31      9203.2272    
   1350000   299.6593      -319937.21      0             -316218.78      9211.0624    
   1360000   299.3458      -319936.9       0             -316222.36      9205.8357    
   1370000   299.82716     -319935.61      0             -316215.1       9189.7468    
   1380000   300.9169      -319945.27      0             -316211.24      9197.1481    
   1390000   300.71198     -319942.83      0             -316211.34      9208.8815    
   1400000   299.10662     -319947.13      0             -316235.56      9178.8922    
   1410000   299.6744      -319940.58      0             -316221.96      9197.5732    
   1420000   300.03791     -319945.39      0             -316222.27      9190.8741    
   1430000   300.60434     -319939.3       0             -316209.15      9214.974     
   1440000   299.4749      -319942.25      0             -316226.11      9203.4896    
   1450000   300.44232     -319947.01      0             -316218.87      9186.2467    
   1460000   300.67003     -319951.97      0             -316221         9187.3124    
   1470000   299.03072     -319947.93      0             -316237.3       9170.9627    
   1480000   301.55307     -319938.73      0             -316196.8       9226.4541    
   1490000   301.15386     -319948.04      0             -316211.07      9212.3245    
   1500000   298.63566     -319941.08      0             -316235.36      9197.3018    
   1510000   299.14762     -319933.5       0             -316221.43      9213.6164    
   1520000   299.41964     -319941.93      0             -316226.48      9208.5327    
   1530000   299.28401     -319941.97      0             -316228.21      9199.3153    
   1540000   299.61214     -319940.2       0             -316222.36      9193.338     
   1550000   299.32118     -319941.5       0             -316227.27      9205.489     
   1560000   298.90781     -319941.23      0             -316232.12      9191.9663    
   1570000   300.82301     -319946         0             -316213.13      9192.0725    
   1580000   299.5254      -319940.51      0             -316223.74      9218.5106    
   1590000   300.77961     -319951.19      0             -316218.87      9192.8445    
   1600000   299.64147     -319942.92      0             -316224.71      9205.1601    
   1610000   299.8435      -319936.91      0             -316216.2       9200.6025    
   1620000   301.58436     -319942.22      0             -316199.91      9207.7937    
   1630000   299.76412     -319947.07      0             -316227.34      9197.1681    
   1640000   300.83979     -319928.62      0             -316195.55      9249.283     
   1650000   300.11101     -319921.48      0             -316197.45      9249.061     
   1660000   298.81849     -319936.55      0             -316228.55      9193.9522    
   1670000   298.76293     -319940.97      0             -316233.67      9190.9276    
   1680000   300.27464     -319941.3       0             -316215.24      9201.4958    
   1690000   301.01552     -319941.45      0             -316206.2       9222.3746    
   1700000   300.42343     -319946.84      0             -316218.93      9202.1961    
   1710000   299.34191     -319944.46      0             -316229.97      9182.156     
   1720000   298.74787     -319942.7       0             -316235.58      9181.6776    
   1730000   299.09412     -319947.88      0             -316236.47      9176.496     
   1740000   300.10823     -319935.54      0             -316211.54      9200.8825    
   1750000   301.38964     -319939.02      0             -316199.12      9218.4238    
   1760000   300.81326     -319937.83      0             -316205.09      9212.6169    
   1770000   299.89667     -319939.86      0             -316218.49      9219.8196    
   1780000   299.48684     -319948.34      0             -316232.06      9188.4422    
   1790000   300.52472     -319942.86      0             -316213.69      9211.9851    
   1800000   300.31378     -319942.36      0             -316215.82      9203.2003    
   1810000   300.54571     -319941.38      0             -316211.96      9209.6011    
   1820000   299.69344     -319931.4       0             -316212.55      9226.4043    
   1830000   299.12654     -319948.26      0             -316236.45      9175.3096    
   1840000   299.60362     -319948.72      0             -316230.98      9192.4188    
   1850000   300.03784     -319934.07      0             -316210.94      9204.5278    
   1860000   300.83612     -319940.63      0             -316207.6       9205.9245    
   1870000   299.83067     -319937.8       0             -316217.25      9204.9478    
   1880000   299.82742     -319948.12      0             -316227.6       9190.0516    
   1890000   300.29787     -319935.17      0             -316208.82      9205.7136    
   1900000   299.18186     -319936.01      0             -316223.51      9207.2205    
   1910000   301.60104     -319942.58      0             -316200.06      9209.078     
   1920000   300.54979     -319953.86      0             -316224.39      9186.3448    
   1930000   299.13913     -319950.74      0             -316238.77      9173.9878    
   1940000   299.21754     -319940.39      0             -316227.44      9198.3435    
   1950000   298.98155     -319946.97      0             -316236.95      9180.8359    
   1960000   301.32468     -319951.96      0             -316212.87      9201.1429    
   1970000   299.8998      -319944.9       0             -316223.49      9191.7877    
   1980000   299.53412     -319944.54      0             -316227.67      9190.385     
   1990000   299.04389     -319939.52      0             -316228.73      9184.4691    
   2000000   300.93416     -319948.14      0             -316213.9       9193.1018    
   2010000   300.39681     -319947.5       0             -316219.92      9188.4289    
   2020000   300.13211     -319947.15      0             -316222.86      9192.6124    
   2030000   301.64118     -319943.21      0             -316200.19      9207.3663    
   2040000   299.65165     -319949.82      0             -316231.49      9180.4949    
   2050000   299.87119     -319926.31      0             -316205.26      9220.8197    
   2060000   299.5083      -319948.85      0             -316232.3       9172.1324    
   2070000   299.81547     -319937.65      0             -316217.29      9195.8194    
   2080000   299.90068     -319937.61      0             -316216.19      9217.3939    
   2090000   299.7704      -319945.96      0             -316226.16      9181.0142    
   2100000   300.68665     -319939.97      0             -316208.79      9210.7948    
   2110000   299.63448     -319948.51      0             -316230.4       9187.9096    
   2120000   299.93408     -319948.48      0             -316226.64      9195.0915    
   2130000   299.26823     -319945.18      0             -316231.6       9182.0547    
   2140000   301.25754     -319941.17      0             -316202.91      9219.5853    
   2150000   299.20726     -319927.48      0             -316214.67      9222.0653    
   2160000   300.35389     -319942.05      0             -316215         9209.5356    
   2170000   300.38535     -319940.94      0             -316213.5       9199.2244    
   2180000   300.59308     -319937         0             -316206.99      9226.1903    
   2190000   300.22451     -319943.38      0             -316217.95      9187.4018    
   2200000   300.07912     -319947.24      0             -316223.6       9185.9829    
   2210000   301.47477     -319943.52      0             -316202.57      9226.1758    
   2220000   299.63675     -319950.97      0             -316232.82      9176.6136    
   2230000   299.17398     -319949.78      0             -316237.38      9177.8977    
   2240000   299.77958     -319931.85      0             -316211.94      9213.1188    
   2250000   299.77918     -319947.76      0             -316227.85      9177.8268    
   2260000   299.25214     -319943.81      0             -316230.44      9180.2227    
   2270000   300.22711     -319941.16      0             -316215.69      9200.7862    
   2280000   300.48062     -319947.97      0             -316219.36      9193.6488    
   2290000   299.75151     -319932         0             -316212.43      9204.7489    
   2300000   299.68192     -319946.81      0             -316228.11      9186.3318    
   2310000   300.34364     -319942.08      0             -316215.16      9215.0869    
   2320000   299.53003     -319946.19      0             -316229.37      9199.438     
   2330000   299.88178     -319944.1       0             -316222.91      9187.0424    
   2340000   301.68233     -319934.25      0             -316190.72      9225.3276    
   2350000   301.07392     -319946.08      0             -316210.1       9191.1971    
   2360000   299.47271     -319943.99      0             -316227.88      9194.3011    
   2370000   299.51788     -319951.71      0             -316235.04      9185.3233    
   2380000   301.05771     -319943.94      0             -316208.16      9198.9872    
   2390000   299.90554     -319936.44      0             -316214.96      9204.5071    
   2400000   300.53067     -319934.08      0             -316204.85      9227.6887    
   2410000   300.98326     -319932.38      0             -316197.52      9225.2832    
   2420000   302.13981     -319958.77      0             -316209.56      9165.6185    
   2430000   300.73874     -319940.02      0             -316208.2       9219.4779    
   2440000   298.21967     -319937.86      0             -316237.3       9185.471     
   2450000   299.20295     -319939.13      0             -316226.37      9193.3185    
   2460000   299.07466     -319942.38      0             -316231.21      9197.4672    
   2470000   300.25565     -319947.25      0             -316221.43      9206.0642    
   2480000   300.59918     -319934.56      0             -316204.48      9221.3957    
   2490000   300.31379     -319929.23      0             -316202.69      9233.5303    
   2500000   301.50357     -319946.22      0             -316204.91      9201.4894    
   2510000   299.05666     -319947.19      0             -316236.24      9170.754     
   2520000   300.53535     -319949.36      0             -316220.06      9174.173     
   2530000   299.41636     -319937.34      0             -316221.93      9206.5043    
   2540000   299.75481     -319939.83      0             -316220.22      9213.1613    
   2550000   300.02481     -319938.92      0             -316215.96      9204.0081    
   2560000   301.21394     -319937.4       0             -316199.68      9189.7193    
   2570000   300.32077     -319937.42      0             -316210.79      9216.7318    
   2580000   299.88263     -319945.94      0             -316224.75      9196.0146    
   2590000   299.69129     -319941.35      0             -316222.53      9203.8854    
   2600000   299.29814     -319946.18      0             -316232.23      9193.067     
   2610000   300.17638     -319950.98      0             -316226.14      9180.5827    
   2620000   300.03383     -319956.72      0             -316233.65      9178.2055    
   2630000   300.9981      -319937.97      0             -316202.93      9215.7126    
   2640000   299.51495     -319947.04    