LAMMPS (23 Jun 2022)
OMP_NUM_THREADS environment is not set. Defaulting to 1 thread. (src/comm.cpp:98)
  using 1 OpenMP thread(s) per MPI task
# 3d metal relaxaction

# initilizing EAM and boundry conditions

units		metal
boundary	p p p

# reading data file containing the configuration

read_data Al_alloy.lmpdat
Reading data file ...
  orthogonal box = (0 0 0) to (80.92 80.92 242.76)
  1 by 1 by 4 MPI processor grid
  reading atoms ...
  96000 atoms
  read_data CPU = 0.105 seconds

# defining potentials and other parameters

pair_style	eam/alloy
pair_coeff	* * Al.eam Al

# Delta t
timestep 0.0005

neighbor	0.3 bin
neigh_modify	delay 5

# dumping configurations at timesteps
dump mydump all custom 2000000 confdump.*.data id type x y z vx vy vz
dump_modify mydump sort id
# set numerical integrator
## NVE; default is velocity Verlet
fix 1 all nvt temp 300.0 300.0 $(100.0*dt)
fix 1 all nvt temp 300.0 300.0 0.050000000000000002776
thermo 10000

run 100000000
Neighbor list info ...
  update every 1 steps, delay 5 steps, check yes
  max neighbors/atom: 2000, page size: 100000
  master list distance cutoff = 6.58721
  ghost atom cutoff = 6.58721
  binsize = 3.293605, bins = 25 25 74
  1 neighbor lists, perpetual/occasional/extra = 1 0 0
  (1) pair eam/alloy, perpetual
      attributes: half, newton on
      pair build: half/bin/atomonly/newton
      stencil: half/bin/3d
      bin: standard
Per MPI rank memory allocation (min/avg/max) = 18.22 | 18.22 | 18.22 Mbytes
   Step          Temp          E_pair         E_mol          TotEng         Press     
         0   0             -322556.55      0             -322556.55      2342.81      
     10000   1.0775954e-09 -322556.55      0             -322556.55      2342.81      
     20000   298.56837     -319260.43      0             -315555.54      9843.6572    
     30000   288.93432     -318502.59      0             -314917.25      14274.169    
     40000   295.82969     -320869.19      0             -317198.28      7670.2331    
     50000   301.63151     -319245.53      0             -315502.64      11043.467    
     60000   300.62603     -320281.43      0             -316551.01      8644.7857    
     70000   304.47138     -320038.78      0             -316260.64      9255.273     
     80000   298.04919     -319770.17      0             -316071.73      9539.811     
     90000   293.57312     -320234.94      0             -316592.04      8645.5861    
    100000   301.93703     -319617.48      0             -315870.79      10017.484    
    110000   298.81947     -319916.47      0             -316208.46      9177.6336    
    120000   303.50397     -320066.63      0             -316300.5       9107.8919    
    130000   300.42506     -319732.33      0             -316004.4       9605.8984    
    140000   301.15082     -319898.05      0             -316161.12      9369.3338    
    150000   298.53834     -320072.14      0             -316367.62      8986.4952    
    160000   300.44806     -319767.46      0             -316039.25      9562.9975    
    170000   300.79504     -319958.56      0             -316226.04      9227.4889    
    180000   298.12327     -320034.94      0             -316335.57      9112.3066    
    190000   302.17232     -319859.62      0             -316110.01      9398.9532    
    200000   301.58346     -319907.99      0             -316165.69      9312.7668    
    210000   300.10767     -320054.96      0             -316330.97      9010.1079    
    220000   300.41764     -319840.97      0             -316113.13      9450.6446    
    230000   300.24719     -319924.26      0             -316198.53      9208.5218    
    240000   301.18999     -319975.93      0             -316238.51      9181.7131    
    250000   299.48607     -319923.41      0             -316207.13      9239.3652    
    260000   299.90176     -319923.02      0             -316201.59      9232.0142    
    270000   297.49653     -319977.49      0             -316285.9       9140.8281    
    280000   299.19207     -319953.58      0             -316240.96      9176.6998    
    290000   299.704       -319919.5       0             -316200.52      9251.9596    
    300000   300.64903     -319966.91      0             -316236.2       9168.3978    
    310000   300.41429     -319977.83      0             -316250.04      9172.5955    
    320000   300.22666     -319941.04      0             -316215.58      9210.82      
    330000   299.86337     -319911.49      0             -316190.53      9246.251     
    340000   300.0782      -319988.47      0             -316264.85      9120.1519    
    350000   299.54666     -319915.48      0             -316198.45      9258.749     
    360000   299.53669     -319962.11      0             -316245.21      9172.5002    
    370000   300.85985     -319936.32      0             -316203         9261.8679    
    380000   301.19576     -319951.15      0             -316213.66      9187.7257    
    390000   300.74114     -319904.94      0             -316173.09      9311.6519    
    400000   300.29525     -319964.39      0             -316238.07      9159.5112    
    410000   301.30783     -319932.6       0             -316193.72      9263.4899    
    420000   300.79729     -319969.72      0             -316237.18      9155.0992    
    430000   300.26729     -319915.32      0             -316189.35      9283.3186    
    440000   299.58223     -320000.33      0             -316282.86      9074.3083    
    450000   299.1965      -319916.43      0             -316203.75      9265.6946    
    460000   300.15516     -319960.37      0             -316235.79      9146.5332    
    470000   301.07823     -319900.51      0             -316164.48      9332.683     
    480000   300.11775     -319966.39      0             -316242.28      9143.6374    
    490000   300.56759     -319904.32      0             -316174.62      9315.9115    
    500000   300.76397     -319979.65      0             -316247.51      9130.2107    
    510000   299.99047     -319915.96      0             -316193.43      9279.9148    
    520000   300.15308     -319971.21      0             -316246.66      9141.5795    
    530000   300.07073     -319899.86      0             -316176.33      9324.3423    
    540000   300.20565     -319986.81      0             -316261.6       9131.5513    
    550000   299.63282     -319903.82      0             -316185.72      9304.7577    
    560000   300.81879     -319985.1       0             -316252.29      9104.4752    
    570000   300.42259     -319906.02      0             -316178.12      9307.5761    
    580000   298.06096     -319980.83      0             -316282.24      9099.2619    
    590000   300.20385     -319919.1       0             -316193.92      9286.1944    
    600000   299.68534     -319976         0             -316257.25      9124.0685    
    610000   300.56293     -319909.26      0             -316179.62      9293.4656    
    620000   298.94621     -319967.46      0             -316257.88      9150.5174    
    630000   300.48295     -319904.93      0             -316176.29      9302.6727    
    640000   298.6004      -319970.65      0             -316265.37      9118.0459    
    650000   300.05144     -319915.01      0             -316191.72      9288.0892    
    660000   299.65057     -319969.22      0             -316250.9       9155.0159    
    670000   299.47616     -319916.44      0             -316200.29      9259.509     
    680000   299.86976     -319968.76      0             -316247.73      9137.2476    
    690000   301.22695     -319918.34      0             -316180.46      9268.0911    
    700000   299.95449     -319961.94      0             -316239.85      9157.1891    
    710000   299.4181      -319920.34      0             -316204.9       9267.4754    
    720000   300.83026     -319955.1       0             -316222.15      9186.6388    
    730000   299.23604     -319918.69      0             -316205.52      9258.3866    
    740000   299.33847     -319960.49      0             -316246.05      9162.4585    
    750000   300.7925      -319931.13      0             -316198.64      9237.8573    
    760000   299.88117     -319962.87      0             -316241.69      9152.4801    
    770000   301.24317     -319939.19      0             -316201.11      9237.1843    
    780000   301.1396      -319960.32      0             -316223.53      9165.5535    
    790000   301.01284     -319932.88      0             -316197.66      9236.2021    
    800000   299.57392     -319960.51      0             -316243.14      9174.8094    
    810000   300.48147     -319944.15      0             -316215.52      9209.8182    
    820000   300.78582     -319960.09      0             -316227.69      9170.3745    
    830000   301.05836     -319928.41      0             -316192.63      9247.0755    
    840000   298.9595      -319942.42      0             -316232.68      9190.9743    
    850000   301.06532     -319930.12      0             -316194.24      9248.336     
    860000   299.44039     -319959.75      0             -316244.05      9164.6197    
    870000   300.77567     -319935.01      0             -316202.73      9231.2349    
    880000   299.60312     -319944.01      0             -316226.28      9205.6407    
    890000   300.57786     -319937.42      0             -316207.59      9239.5477    
    900000   300.15547     -319950.57      0             -316225.99      9189.8891    
    910000   299.59445     -319946.43      0             -316228.81      9199.7486    
    920000   300.06845     -319950.75      0             -316227.24      9169.8413    
    930000   300.15334     -319944.14      0             -316219.58      9211.1252    
    940000   300.11691     -319948.36      0             -316224.26      9207.6163    
    950000   300.52927     -319939.75      0             -316210.52      9225.8983    
    960000   299.55829     -319942.38      0             -316225.21      9196.956     
    970000   300.50605     -319947.39      0             -316218.46      9194.1633    
    980000   300.19495     -319962.29      0             -316237.22      9182.5453    
    990000   301.05194     -319926.78      0             -316191.07      9245.5308    
   1000000   300.7203      -319945.09      0             -316213.5       9202.8475    
   1010000   299.73842     -319942.27      0             -316222.86      9190.2386    
   1020000   300.92956     -319934.83      0             -316200.64      9226.8723    
   1030000   299.53285     -319938.13      0             -316221.27      9207.8861    
   1040000   299.95209     -319941.1       0             -316219.04      9200.8078    
   1050000   300.15608     -319942.23      0             -316217.64      9205.3087    
   1060000   300.91589     -319934.78      0             -316200.77      9226.3497    
   1070000   301.32444     -319951.49      0             -316212.4       9200.7216    
   1080000   299.35515     -319946.32      0             -316231.67      9192.8421    
   1090000   300.45907     -319942.71      0             -316214.36      9209.1071    
   1100000   299.84258     -319940.1       0             -316219.4       9203.827     
   1110000   299.85507     -319938.69      0             -316217.83      9214.8453    
   1120000   299.36788     -319943.92      0             -316229.11      9187.6892    
   1130000   300.73883     -319961.58      0             -316229.76      9164.3304    
   1140000   300.87361     -319936.22      0             -316202.73      9212.9548    
   1150000   299.25282     -319944.17      0             -316230.79      9189.7246    
   1160000   299.45728     -319946.2       0             -316230.28      9191.6522    
   1170000   299.66055     -319947.78      0             -316229.34      9170.199     
   1180000   300.95994     -319942.44      0             -316207.87      9212.2646    
   1190000   300.27317     -319943.57      0             -316217.52      9194.7537    
   1200000   299.85666     -319933.95      0             -316213.08      9224.872     
   1210000   300.20274     -319950.2       0             -316225.03      9179.3223    
   1220000   300.32842     -319930.32      0             -316203.6       9210.4234    
   1230000   299.49626     -319943.04      0             -316226.64      9192.6297    
   1240000   299.1205      -319935.26      0             -316223.52      9197.6946    
   1250000   298.34762     -319953.52      0             -316251.37      9157.2965    
   1260000   299.58841     -319945.74      0             -316228.19      9196.926     
   1270000   300.61778     -319943.65      0             -316213.34      9211.711     
   1280000   300.41436     -319928.46      0             -316200.66      9231.1794    
   1290000   300.11984     -319938.07      0             -316213.93      9211.4903    
   1300000   300.17164     -319943.75      0             -316218.97      9203.7615    
   1310000   300.15868     -319954.35      0             -316229.73      9171.6952    
   1320000   300.63958     -319948.43      0             -316217.84      9191.4722    
   1330000   300.26379     -319951.47      0             -316225.55      9186.7799    
   1340000   299.5761      -319937.7       0             -316220.31      9203.2272    
   1350000   299.6593      -319937.21      0             -316218.78      9211.0624    
   1360000   299.3458      -319936.9       0             -316222.36      9205.8357    
   1370000   299.82716     -319935.61      0             -316215.1       9189.7468    
   1380000   300.9169      -319945.27      0             -316211.24      9197.1481    
   1390000   300.71198     -319942.83      0             -316211.34      9208.8815    
   1400000   299.10662     -319947.13      0             -316235.56      9178.8922    
   1410000   299.6744      -319940.58      0             -316221.96      9197.5732    
   1420000   300.03791     -319945.39      0             -316222.27      9190.8741    
   1430000   300.60434     -319939.3       0             -316209.15      9214.974     
   1440000   299.4749      -319942.25      0             -316226.11      9203.4896    
   1450000   300.44232     -319947.01      0             -316218.87      9186.2467    
   1460000   300.67003     -319951.97      0             -316221         9187.3124    
   1470000   299.03072     -319947.93      0             -316237.3       9170.9627    
   1480000   301.55307     -319938.73      0             -316196.8       9226.4541    
   1490000   301.15386     -319948.04      0             -316211.07      9212.3245    
   1500000   298.63566     -319941.08      0             -316235.36      9197.3018    
   1510000   299.14762     -319933.5       0             -316221.43      9213.6164    
   1520000   299.41964     -319941.93      0             -316226.48      9208.5327    
   1530000   299.28401     -319941.97      0             -316228.21      9199.3153    
   1540000   299.61214     -319940.2       0             -316222.36      9193.338     
   1550000   299.32118     -319941.5       0             -316227.27      9205.489     
   1560000   298.90781     -319941.23      0             -316232.12      9191.9663    
   1570000   300.82301     -319946         0             -316213.13      9192.0725    
   1580000   299.5254      -319940.51      0             -316223.74      9218.5106    
   1590000   300.77961     -319951.19      0             -316218.87      9192.8445    
   1600000   299.64147     -319942.92      0             -316224.71      9205.1601    
   1610000   299.8435      -319936.91      0             -316216.2       9200.6025    
   1620000   301.58436     -319942.22      0             -316199.91      9207.7937    
   1630000   299.76412     -319947.07      0             -316227.34      9197.1681    
   1640000   300.83979     -319928.62      0             -316195.55      9249.283     
   1650000   300.11101     -319921.48      0             -316197.45      9249.061     
   1660000   298.81849     -319936.55      0             -316228.55      9193.9522    
   1670000   298.76293     -319940.97      0             -316233.67      9190.9276    
   1680000   300.27464     -319941.3       0             -316215.24      9201.4958    
   1690000   301.01552     -319941.45      0             -316206.2       9222.3746    
   1700000   300.42343     -319946.84      0             -316218.93      9202.1961    
   1710000   299.34191     -319944.46      0             -316229.97      9182.156     
   1720000   298.74787     -319942.7       0             -316235.58      9181.6776    
   1730000   299.09412     -319947.88      0             -316236.47      9176.496     
   1740000   300.10823     -319935.54      0             -316211.54      9200.8825    
   1750000   301.38964     -319939.02      0             -316199.12      9218.4238    
   1760000   300.81326     -319937.83      0             -316205.09      9212.6169    
   1770000   299.89667     -319939.86      0             -316218.49      9219.8196    
   1780000   299.48684     -319948.34      0             -316232.06      9188.4422    
   1790000   300.52472     -319942.86      0             -316213.69      9211.9851    
   1800000   300.31378     -319942.36      0             -316215.82      9203.2003    
   1810000   300.54571     -319941.38      0             -316211.96      9209.6011    
   1820000   299.69344     -319931.4       0             -316212.55      9226.4043    
   1830000   299.12654     -319948.26      0             -316236.45      9175.3096    
   1840000   299.60362     -319948.72      0             -316230.98      9192.4188    
   1850000   300.03784     -319934.07      0             -316210.94      9204.5278    
   1860000   300.83612     -319940.63      0             -316207.6       9205.9245    
   1870000   299.83067     -319937.8       0             -316217.25      9204.9478    
   1880000   299.82742     -319948.12      0             -316227.6       9190.0516    
   1890000   300.29787     -319935.17      0             -316208.82      9205.7136    
   1900000   299.18186     -319936.01      0             -316223.51      9207.2205    
   1910000   301.60104     -319942.58      0             -316200.06      9209.078     
   1920000   300.54979     -319953.86      0             -316224.39      9186.3448    
   1930000   299.13913     -319950.74      0             -316238.77      9173.9878    
   1940000   299.21754     -319940.39      0             -316227.44      9198.3435    
   1950000   298.98155     -319946.97      0             -316236.95      9180.8359    
   1960000   301.32468     -319951.96      0             -316212.87      9201.1429    
   1970000   299.8998      -319944.9       0             -316223.49      9191.7877    
   1980000   299.53412     -319944.54      0             -316227.67      9190.385     
   1990000   299.04389     -319939.52      0             -316228.73      9184.4691    
   2000000   300.93416     -319948.14      0             -316213.9       9193.1018    
   2010000   300.39681     -319947.5       0             -316219.92      9188.4289    
   2020000   300.13211     -319947.15      0             -316222.86      9192.6124    
   2030000   301.64118     -319943.21      0             -316200.19      9207.3663    
   2040000   299.65165     -319949.82      0             -316231.49      9180.4949    
   2050000   299.87119     -319926.31      0             -316205.26      9220.8197    
   2060000   299.5083      -319948.85      0             -316232.3       9172.1324    
   2070000   299.81547     -319937.65      0             -316217.29      9195.8194    
   2080000   299.90068     -319937.61      0             -316216.19      9217.3939    
   2090000   299.7704      -319945.96      0             -316226.16      9181.0142    
   2100000   300.68665     -319939.97      0             -316208.79      9210.7948    
   2110000   299.63448     -319948.51      0             -316230.4       9187.9096    
   2120000   299.93408     -319948.48      0             -316226.64      9195.0915    
   2130000   299.26823     -319945.18      0             -316231.6       9182.0547    
   2140000   301.25754     -319941.17      0             -316202.91      9219.5853    
   2150000   299.20726     -319927.48      0             -316214.67      9222.0653    
   2160000   300.35389     -319942.05      0             -316215         9209.5356    
   2170000   300.38535     -319940.94      0             -316213.5       9199.2244    
   2180000   300.59308     -319937         0             -316206.99      9226.1903    
   2190000   300.22451     -319943.38      0             -316217.95      9187.4018    
   2200000   300.07912     -319947.24      0             -316223.6       9185.9829    
   2210000   301.47477     -319943.52      0             -316202.57      9226.1758    
   2220000   299.63675     -319950.97      0             -316232.82      9176.6136    
   2230000   299.17398     -319949.78      0             -316237.38      9177.8977    
   2240000   299.77958     -319931.85      0             -316211.94      9213.1188    
   2250000   299.77918     -319947.76      0             -316227.85      9177.8268    
   2260000   299.25214     -319943.81      0             -316230.44      9180.2227    
   2270000   300.22711     -319941.16      0             -316215.69      9200.7862    
   2280000   300.48062     -319947.97      0             -316219.36      9193.6488    
   2290000   299.75151     -319932         0             -316212.43      9204.7489    
   2300000   299.68192     -319946.81      0             -316228.11      9186.3318    
   2310000   300.34364     -319942.08      0             -316215.16      9215.0869    
   2320000   299.53003     -319946.19      0             -316229.37      9199.438     
   2330000   299.88178     -319944.1       0             -316222.91      9187.0424    
   2340000   301.68233     -319934.25      0             -316190.72      9225.3276    
   2350000   301.07392     -319946.08      0             -316210.1       9191.1971    
   2360000   299.47271     -319943.99      0             -316227.88      9194.3011    
   2370000   299.51788     -319951.71      0             -316235.04      9185.3233    
   2380000   301.05771     -319943.94      0             -316208.16      9198.9872    
   2390000   299.90554     -319936.44      0             -316214.96      9204.5071    
   2400000   300.53067     -319934.08      0             -316204.85      9227.6887    
   2410000   300.98326     -319932.38      0             -316197.52      9225.2832    
   2420000   302.13981     -319958.77      0             -316209.56      9165.6185    
   2430000   300.73874     -319940.02      0             -316208.2       9219.4779    
   2440000   298.21967     -319937.86      0             -316237.3       9185.471     
   2450000   299.20295     -319939.13      0             -316226.37      9193.3185    
   2460000   299.07466     -319942.38      0             -316231.21      9197.4672    
   2470000   300.25565     -319947.25      0             -316221.43      9206.0642    
   2480000   300.59918     -319934.56      0             -316204.48      9221.3957    
   2490000   300.31379     -319929.23      0             -316202.69      9233.5303    
   2500000   301.50357     -319946.22      0             -316204.91      9201.4894    
   2510000   299.05666     -319947.19      0             -316236.24      9170.754     
   2520000   300.53535     -319949.36      0             -316220.06      9174.173     
   2530000   299.41636     -319937.34      0             -316221.93      9206.5043    
   2540000   299.75481     -319939.83      0             -316220.22      9213.1613    
   2550000   300.02481     -319938.92      0             -316215.96      9204.0081    
   2560000   301.21394     -319937.4       0             -316199.68      9189.7193    
   2570000   300.32077     -319937.42      0             -316210.79      9216.7318    
   2580000   299.88263     -319945.94      0             -316224.75      9196.0146    
   2590000   299.69129     -319941.35      0             -316222.53      9203.8854    
   2600000   299.29814     -319946.18      0             -316232.23      9193.067     
   2610000   300.17638     -319950.98      0             -316226.14      9180.5827    
   2620000   300.03383     -319956.72      0             -316233.65      9178.2055    
   2630000   300.9981      -319937.97      0             -316202.93      9215.7126    
   2640000   299.51495     -319947.04      0             -316230.41      9179.4039    
   2650000   300.0542      -319946.53      0             -316223.21      9199.8866    
   2660000   300.16958     -319942.81      0             -316218.05      9207.4709    
   2670000   300.61397     -319927.99      0             -316197.71      9230.8983    
   2680000   300.4464      -319941.16      0             -316212.96      9221.1562    
   2690000   300.39744     -319931.64      0             -316204.05      9227.9195    
   2700000   300.78519     -319938.42      0             -316206.02      9218.0177    
   2710000   301.40571     -319942.17      0             -316202.07      9212.5191    
   2720000   299.42075     -319951.29      0             -316235.83      9176.2095    
   2730000   299.75128     -319945.74      0             -316226.18      9199.3707    
   2740000   299.64728     -319938.64      0             -316220.36      9198.7453    
   2750000   301.85581     -319945.11      0             -316199.43      9208.5293    
   2760000   301.6084      -319954.27      0             -316211.66      9182.1696    
   2770000   300.61464     -319946.31      0             -316216.03      9198.0498    
   2780000   299.64934     -319937.38      0             -316219.07      9215.2079    
   2790000   299.74225     -319953.61      0             -316234.15      9167.4043    
   2800000   299.68036     -319937.73      0             -316219.04      9212.8967    
   2810000   299.82127     -319932.55      0             -316212.12      9220.205     
   2820000   301.64812     -319938.8       0             -316195.7       9225.2517    
   2830000   299.44918     -319944         0             -316228.18      9191.277     
   2840000   300.08051     -319928.77      0             -316205.12      9226.9813    
   2850000   300.93034     -319940.75      0             -316206.55      9206.4324    
   2860000   300.18857     -319940.93      0             -316215.94      9200.6256    
   2870000   300.48462     -319949         0             -316220.33      9190.0841    
   2880000   300.27165     -319935.87      0             -316209.84      9223.4709    
   2890000   299.70884     -319941.77      0             -316222.73      9187.3873    
   2900000   299.54888     -319940.41      0             -316223.35      9206.9271    
   2910000   302.57486     -319930.87      0             -316176.26      9247.7501    
   2920000   299.62344     -319940.54      0             -316222.56      9209.4354    
   2930000   298.73165     -319934.18      0             -316227.27      9214.2663    
   2940000   299.92549     -319941.9       0             -316220.17      9203.3023    
   2950000   300.62882     -319952.31      0             -316221.85      9179.0291    
   2960000   301.39512     -319924.35      0             -316184.38      9247.7342    
   2970000   300.34326     -319947.52      0             -316220.61      9207.112     
   2980000   300.38632     -319947.24      0             -316219.79      9189.4866    
   2990000   300.33564     -319946.06      0             -316219.24      9181.3185    
   3000000   300.52529     -319954.61      0             -316225.44      9179.7872    
   3010000   300.10049     -319938.56      0             -316214.66      9218.7353    
   3020000   300.60628     -319945.54      0             -316215.37      9193.1818    
   3030000   301.46123     -319941.69      0             -316200.91      9210.4812    
   3040000   300.49068     -319940.56      0             -316211.82      9197.6396    
   3050000   298.87849     -319940.04      0             -316231.31      9179.083     
   3060000   300.23532     -319937.24      0             -316211.67      9199.4274    
   3070000   299.57999     -319937.73      0             -316220.29      9214.9594    
   3080000   299.90482     -319936.9       0             -316215.43      9210.9005    
   3090000   300.0471      -319939.35      0             -316216.11      9194.6468    
   3100000   301.04775     -319931.22      0             -316195.56      9232.5728    
   3110000   300.13825     -319928.3       0             -316203.93      9231.0911    
   3120000   300.89779     -319940.6       0             -316206.8       9204.3937    
   3130000   300.88551     -319938.87      0             -316205.23      9215.0457    
   3140000   300.34207     -319939.66      0             -316212.77      9205.4358    
   3150000   300.26246     -319939.37      0             -316213.46      9213.513     
   3160000   300.20081     -319943.56      0             -316218.41      9205.0884    
   3170000   300.97088     -319936.51      0             -316201.81      9218.5466    
   3180000   299.42088     -319937.61      0             -316222.14      9203.4305    
   3190000   300.31037     -319943.84      0             -316217.34      9192.7999    
   3200000   299.47685     -319936.49      0             -316220.33      9228.0901    
   3210000   300.3922      -319929.99      0             -316202.47      9245.0124    
   3220000   299.94921     -319943.73      0             -316221.71      9196.0894    
   3230000   300.04022     -319940.06      0             -316216.91      9201.1977    
   3240000   300.82751     -319932.11      0             -316199.19      9224.7437    
   3250000   299.63522     -319932.21      0             -316214.08      9233.1912    
   3260000   298.70771     -319949.51      0             -316242.89      9171.7555    
   3270000   300.41435     -319946.01      0             -316218.22      9196.3708    
   3280000   299.73875     -319946.05      0             -316226.64      9190.8926    
   3290000   299.79664     -319938.36      0             -316218.23      9209.8696    
   3300000   299.1968      -319945.07      0             -316232.38      9194.3047    
   3310000   298.3746      -319955.82      0             -316253.34      9160.4183    
   3320000   300.64714     -319941.01      0             -316210.33      9216.0118    
   3330000   299.43957     -319933.69      0             -316217.99      9218.8477    
   3340000   300.10912     -319947.09      0             -316223.08      9197.2633    
   3350000   301.72768     -319943.93      0             -316199.83      9202.9713    
   3360000   300.79501     -319938.74      0             -316206.22      9210.6219    
   3370000   299.97347     -319936.11      0             -316213.79      9220.5742    
   3380000   301.02238     -319950.26      0             -316214.92      9199.1221    
   3390000   300.5606      -319944.92      0             -316215.31      9201.5245    
   3400000   300.42086     -319944.34      0             -316216.47      9204.4377    
   3410000   300.50824     -319940.97      0             -316212.01      9222.9277    
   3420000   300.36175     -319939.32      0             -316212.18      9201.0337    
   3430000   299.25352     -319940.36      0             -316226.97      9200.6647    
   3440000   299.34517     -319940.8       0             -316226.27      9200.6486    
   3450000   299.39583     -319942.04      0             -316226.88      9192.7961    
   3460000   299.85087     -319941.13      0             -316220.33      9203.0301    
   3470000   300.16719     -319925.48      0             -316200.76      9229.7637    
   3480000   299.33329     -319932.15      0             -316217.77      9220.73      
   3490000   299.8144      -319943.45      0             -316223.1       9184.7816    
   3500000   300.00901     -319952.59      0             -316229.82      9187.6052    
   3510000   300.19272     -319944.29      0             -316219.24      9189.0634    
   3520000   300.1968      -319944.88      0             -316219.79      9199.7582    
   3530000   299.72138     -319942.06      0             -316222.86      9202.4169    
   3540000   299.89945     -319940.22      0             -316218.81      9197.0403    
   3550000   299.24788     -319954.93      0             -316241.61      9162.2513    
   3560000   299.38501     -319939.65      0             -316224.63      9183.2983    
   3570000   300.01934     -319934.62      0             -316211.72      9203.0191    
   3580000   299.93828     -319946.65      0             -316224.76      9183.9439    
   3590000   299.83744     -319945.98      0             -316225.35      9198.3271    
   3600000   300.6527      -319949.29      0             -316218.53      9197.6829    
   3610000   299.50478     -319946.85      0             -316230.34      9179.4664    
   3620000   300.11414     -319954.97      0             -316230.9       9171.2153    
   3630000   299.32227     -319939.88      0             -316225.64      9205.8091    
   3640000   299.89394     -319944.11      0             -316222.77      9187.0529    
   3650000   299.2512      -319947.72      0             -316234.36      9174.6982    
   3660000   300.09118     -319937.19      0             -316213.4       9213.7629    
   3670000   299.77293     -319943.94      0             -316224.11      9191.3183    
   3680000   299.8247      -319943.3       0             -316222.82      9189.7892    
   3690000   298.64604     -319952.72      0             -316246.87      9172.1504    
   3700000   300.11096     -319929.97      0             -316205.94      9222.7116    
   3710000   300.51805     -319954.36      0             -316225.28      9178.4849    
   3720000   299.8514      -319942.62      0             -316221.81      9189.5407    
   3730000   301.22445     -319926.15      0             -316188.3       9239.0547    
   3740000   301.73326     -319938.88      0             -316194.72      9214.2655    
   3750000   300.91547     -319928.32      0             -316194.31      9234.8755    
   3760000   300.91298     -319937.97      0             -316203.99      9223.2958    
   3770000   299.26575     -319947.18      0             -316233.64      9196.5999    
   3780000   300.00625     -319944.36      0             -316221.63      9215.0847    
   3790000   298.73747     -319938.83      0             -316231.84      9192.5851    
   3800000   300.19113     -319941.04      0             -316216.01      9210.9539    
   3810000   300.90025     -319937.77      0             -316203.95      9221.6996    
   3820000   299.66951     -319937.28      0             -316218.72      9206.7358    
   3830000   299.38728     -319946.58      0             -316231.53      9177.6733    
   3840000   300.0722      -319933.92      0             -316210.37      9227.2316    
   3850000   298.89844     -319944.97      0             -316235.99      9195.9589    
   3860000   300.38384     -319946.96      0             -316219.54      9192.3231    
   3870000   299.9542      -319945.96      0             -316223.87      9181.6427    
   3880000   300.68823     -319932.82      0             -316201.62      9228.1933    
   3890000   301.37443     -319931.29      0             -316191.58      9218.5237    
   3900000   300.02064     -319949.11      0             -316226.2       9176.1084    
   3910000   299.67809     -319944.07      0             -316225.41      9198.7614    
   3920000   299.76394     -319948.73      0             -316229.01      9188.714     
   3930000   301.51114     -319932.66      0             -316191.26      9223.5787    
   3940000   298.90065     -319949.88      0             -316240.87      9167.0563    
   3950000   300.1947      -319948.16      0             -316223.09      9185.8042    
   3960000   300.99012     -319932.43      0             -316197.49      9243.2114    
   3970000   299.58175     -319939.94      0             -316222.48      9195.2539    
   3980000   300.81874     -319943.64      0             -316210.82      9216.7255    
   3990000   298.95624     -319939.46      0             -316229.76      9207.637     
   4000000   299.07335     -319958.66      0             -316247.51      9151.0445    
   4010000   299.69374     -319943.97      0             -316225.12      9190.0249    
   4020000   301.97405     -319937.4       0             -316190.25      9220.1642    
   4030000   299.7017      -319942.08      0             -316223.13      9207.8109    
   4040000   299.69155     -319929.61      0             -316210.78      9221.3292    
   4050000   300.64844     -319937.5       0             -316206.8       9225.4123    
   4060000   299.76409     -319934.49      0             -316214.76      9217.6409    
   4070000   299.35009     -319935.3       0             -316220.72      9204.8874    
   4080000   297.57059     -319955.42      0             -316262.91      9156.3516    
   4090000   299.68541     -319930.92      0             -316212.18      9216.9282    
   4100000   300.15089     -319922.15      0             -316197.63      9249.4319    
   4110000   301.04916     -319940.87      0             -316205.2       9208.6317    
   4120000   298.88577     -319945.36      0             -316236.53      9189.7564    
   4130000   299.46885     -319941.52      0             -316225.46      9191.7628    
   4140000   301.04124     -319931.13      0             -316195.55      9235.5247    
   4150000   300.23225     -319953.2       0             -316227.67      9178.6308    
   4160000   299.32223     -319940.75      0             -316226.51      9192.8786    
   4170000   300.56046     -319934.18      0             -316204.57      9223.1476    
   4180000   298.80705     -319937.67      0             -316229.82      9208.137     
   4190000   299.40749     -319938.05      0             -316222.75      9196.7371    
   4200000   301.35822     -319933.1       0             -316193.6       9230.4864    
   4210000   299.61402     -319942.04      0             -316224.18      9199.804     
   4220000   300.5913      -319935.38      0             -316205.38      9216.3956    
   4230000   298.80884     -319938.41      0             -316230.54      9211.6628    
   4240000   299.13958     -319948.61      0             -316236.63      9185.5539    
   4250000   299.40238     -319932.7       0             -316217.46      9216.4218    
   4260000   299.66002     -319942.88      0             -316224.44      9198.0464    
   4270000   300.19197     -319939.11      0             -316214.08      9208.2186    
   4280000   300.0225      -319950.52      0             -316227.59      9188.1997    
   4290000   300.06974     -319934.2       0             -316210.68      9219.5192    
   4300000   300.43577     -319955.28      0             -316227.22      9170.0574    
   4310000   299.42426     -319937.57      0             -316222.06      9191.0566    
   4320000   300.16262     -319942.3       0             -316217.63      9197.6582    
   4330000   300.68492     -319939.9       0             -316208.75      9215.0135    
   4340000   299.78418     -319925.98      0             -316206.01      9240.3168    
   4350000   300.20332     -319938.93      0             -316213.76      9205.6098    
   4360000   300.54402     -319939.95      0             -316210.55      9201.0414    
   4370000   301.18609     -319938.39      0             -316201.02      9215.5447    
   4380000   299.39872     -319932.79      0             -316217.6       9199.4967    
   4390000   298.9034      -319935.44      0             -316226.39      9190.0787    
   4400000   299.72575     -319945.66      0             -316226.41      9196.6138    
   4410000   300.15636     -319935.51      0             -316210.92      9189.0812    
   4420000   300.06437     -319941.14      0             -316217.69      9225.3102    
   4430000   300.43179     -319942.93      0             -316214.92      9194.824     
   4440000   300.19743     -319943.04      0             -316217.93      9196.7014    
   4450000   299.98371     -319936.57      0             -316214.12      9215.8411    
   4460000   300.85847     -319939.21      0             -316205.91      9218.4068    
   4470000   300.9415      -319944.41      0             -316210.07      9208.2695    
   4480000   300.92044     -319941.59      0             -316207.52      9201.4116    
   4490000   298.86872     -319945.87      0             -316237.25      9187.1176    
   4500000   299.70573     -319937.11      0             -316218.11      9202.8017    
   4510000   300.43707     -319935.55      0             -316207.48      9224.1826    
   4520000   301.65522     -319937.13      0             -316193.94      9223.6727    
   4530000   300.81451     -319940.03      0             -316207.27      9207.3836    
   4540000   299.19904     -319947.85      0             -316235.13      9174.5744    
   4550000   298.25585     -319945.27      0             -316244.26      9171.9604    
   4560000   299.64358     -319934.41      0             -316216.18      9212.593     
   4570000   300.83573     -319933.09      0             -316200.07      9233.6891    
   4580000   299.89762     -319938.59      0             -316217.21      9208.4171    
   4590000   300.75329     -319933.01      0             -316201.01      9222.3231    
   4600000   300.23145     -319929.68      0             -316204.15      9240.4564    
   4610000   299.9165      -319936.2       0             -316214.59      9210.2716    
   4620000   299.56762     -319942.46      0             -316225.18      9196.3672    
   4630000   299.21343     -319939.58      0             -316226.69      9190.8243    
   4640000   298.57691     -319947.08      0             -316242.09      9177.8226    
   4650000   299.79913     -319930.05      0             -316209.89      9223.5329    
   4660000   300.74723     -319937.42      0             -316205.49      9210.9319    
   4670000   300.5141      -319949.01      0             -316219.97      9181.0979    
   4680000   300.49093     -319939.4       0             -316210.66      9227.8781    
   4690000   300.04591     -319939.96      0             -316216.74      9188.1541    
   4700000   300.22648     -319941.89      0             -316216.43      9210.8053    
   4710000   300.38192     -319946.68      0             -316219.29      9201.4284    
   4720000   300.1757      -319938.54      0             -316213.7       9217.7797    
   4730000   299.23244     -319944.65      0             -316231.52      9185.4137    
   4740000   300.05206     -319935.06      0             -316211.76      9219.444     
   4750000   300.40342     -319936.34      0             -316208.68      9222.2618    
   4760000   300.10903     -319939.84      0             -316215.83      9201.2871    
   4770000   299.68193     -319943.6       0             -316224.89      9193.3339    
   4780000   300.00243     -319936.78      0             -316214.09      9207.6039    
   4790000   299.82608     -319940.72      0             -316220.22      9201.022     
   4800000   300.90385     -319941.03      0             -316207.16      9211.6924    
   4810000   299.6546      -319938.48      0             -316220.11      9188.933     
   4820000   299.25961     -319937.24      0             -316223.77      9205.7304    
   4830000   300.04774     -319938.43      0             -316215.18      9202.2498    
   4840000   300.21395     -319958.53      0             -316233.23      9166.6282    
   4850000   300.59616     -319943.68      0             -316213.62      9174.171     
   4860000   300.02717     -319929.2       0             -316206.21      9227.1857    
   4870000   299.04908     -319946.61      0             -316235.76      9177.7927    
   4880000   300.31006     -319936.02      0             -316209.52      9214.445     
   4890000   298.92837     -319936.28      0             -316226.93      9199.5765    
   4900000   299.03678     -319942.6       0             -316231.9       9186.1369    
   4910000   300.32227     -319925.54      0             -316198.89      9231.8626    
   4920000   299.67072     -319936.56      0             -316217.99      9217.4653    
   4930000   300.74652     -319936.65      0             -316204.73      9208.7317    
   4940000   299.99879     -319947.68      0             -316225.04      9190.3144    
   4950000   298.61294     -319936.1       0             -316230.66      9185.2497    
   4960000   300.85047     -319938.91      0             -316205.71      9207.1192    
   4970000   301.72811     -319945.39      0             -316201.29      9211.9676    
   4980000   300.70656     -319939.57      0             -316208.15      9219.2236    
   4990000   299.32623     -319942.27      0             -316227.98      9198.2373    
   5000000   300.1892      -319937.1       0             -316212.1       9231.7811    
   5010000   300.16117     -319945.39      0             -316220.73      9193.5352    
   5020000   300.74997     -319929.36      0             -316197.4       9232.9356    
   5030000   300.00246     -319943.76      0             -316221.07      9197.3519    
   5040000   300.02727     -319948.65      0             -316225.66      9182.4929    
   5050000   299.83079     -319934.08      0             -316213.53      9219.5728    
   5060000   300.67195     -319939.65      0             -316208.66      9209.2991    
   5070000   300.22453     -319931.9       0             -316206.46      9220.8069    
   5080000   301.14553     -319936.84      0             -316199.97      9224.4902    
   5090000   300.53629     -319942.61      0             -316213.3       9204.1907    
   5100000   299.2502      -319946.19      0             -316232.84      9181.5084    
   5110000   300.62815     -319936.81      0             -316206.37      9218.0101    
   5120000   299.98184     -319939.34      0             -316216.91      9203.6924    
   5130000   301.14583     -319938.65      0             -316201.78      9200.6623    
   5140000   299.28177     -319939.34      0             -316225.6       9198.5851    
   5150000   299.33247     -319932.02      0             -316217.65      9232.3764    
   5160000   300.89151     -319936.38      0             -316202.66      9224.8007    
   5170000   299.74073     -319941.46      0             -316222.02      9207.7966    
   5180000   299.96287     -319939.43      0             -316217.24      9213.7324    
   5190000   299.11992     -319940.22      0             -316228.48      9203.5219    
   5200000   298.76784     -319949.12      0             -316241.75      9175.4147    
   5210000   299.58918     -319943.81      0             -316226.25      9201.1567    
   5220000   300.92014     -319946.32      0             -316212.25      9206.4402    
   5230000   299.42331     -319933.64      0             -316218.15      9210.9334    
   5240000   300.88046     -319943.78      0             -316210.2       9211.4451    
   5250000   299.38095     -319931.2       0             -316216.23      9227.8475    
   5260000   299.94214     -319935.29      0             -316213.36      9217.4858    
   5270000   299.50186     -319938.41      0             -316221.94      9210.6612    
   5280000   299.49023     -319933.13      0             -316216.8       9209.0345    
   5290000   299.98552     -319942.99      0             -316220.52      9199.4373    
   5300000   300.89977     -319940.25      0             -316206.43      9216.6323    
   5310000   300.07124     -319924.69      0             -316201.15      9241.3709    
   5320000   298.64024     -319939.09      0             -316233.31      9209.6614    
   5330000   299.79783     -319941.96      0             -316221.81      9207.3584    
   5340000   300.01075     -319930.14      0             -316207.35      9227.4606    
   5350000   300.74082     -319941.17      0             -316209.33      9204.9115    
   5360000   300.37312     -319929.9       0             -316202.62      9231.6813    
   5370000   299.37733     -319941.13      0             -316226.21      9190.9133    
   5380000   299.25885     -319944.1       0             -316230.64      9180.9654    
   5390000   299.74866     -319944.02      0             -316224.49      9188.5453    
   5400000   300.53424     -319937.28      0             -316208         9230.6426    
   5410000   301.35274     -319931.75      0             -316192.31      9247.0554    
   5420000   298.99382     -319944.01      0             -316233.84      9184.1681    
   5430000   301.44111     -319937.07      0             -316196.54      9226.6318    
   5440000   299.78387     -319933.71      0             -316213.74      9214.7772    
   5450000   298.96677     -319944.58      0             -316234.74      9171.1711    
   5460000   300.57967     -319953.37      0             -316223.52      9183.6307    
   5470000   301.01076     -319937.23      0             -316202.04      9222.7545    
   5480000   300.14468     -319944.02      0             -316219.57      9183.3269    
   5490000   300.34034     -319929.39      0             -316202.51      9238.0018    
   5500000   299.94753     -319933.03      0             -316211.02      9225.7064    
   5510000   300.33099     -319939.56      0             -316212.8       9214.1874    
   5520000   299.75054     -319946.37      0             -316226.81      9193.3443    
   5530000   299.79316     -319932.96      0             -316212.87      9226.643     
   5540000   299.64064     -319937.03      0             -316218.84      9213.6942    
   5550000   299.8433      -319951.86      0             -316231.15      9189.9029    
   5560000   300.67629     -319945.23      0             -316214.19      9210.7905    
   5570000   299.2776      -319948.6       0             -316234.91      9187.1167    
   5580000   301.51884     -319937.84      0             -316196.34      9227.7164    
   5590000   300.06084     -319945.79      0             -316222.38      9197.1911    
   5600000   299.89793     -319937.82      0             -316216.43      9210.4689    
   5610000   301.14586     -319934.45      0             -316197.57      9215.38      
   5620000   300.71502     -319945.93      0             -316214.4       9188.5841    
   5630000   299.77788     -319943.14      0             -316223.24      9196.1209    
   5640000   300.12548     -319938.33      0             -316214.12      9212.3796    
   5650000   300.20241     -319940.34      0             -316215.17      9195.5395    
   5660000   299.66872     -319945.28      0             -316226.74      9180.5628    
   5670000   300.9528      -319949.65      0             -316215.17      9189.449     
   5680000   299.23928     -319933.65      0             -316220.44      9202.0121    
   5690000   300.3774      -319938.8       0             -316211.47      9204.3247    
   5700000   300.26628     -319939.63      0             -316213.67      9202.4981    
   5710000   299.981       -319945.88      0             -316223.46      9187.3624    
   5720000   300.40659     -319937.67      0             -316209.97      9220.9596    
   5730000   300.62421     -319936.86      0             -316206.46      9213.682     
   5740000   298.33331     -319951.09      0             -316249.12      9175.8088    
   5750000   301.78451     -319935.01      0             -316190.21      9243.0744    
   5760000   300.06443     -319941.03      0             -316217.58      9205.8231    
   5770000   299.05589     -319937.05      0             -316226.11      9197.2733    
   5780000   299.98645     -319935.65      0             -316213.17      9221.6943    
   5790000   299.70043     -319940.5       0             -316221.57      9217.8374    
   5800000   299.57516     -319938.84      0             -316221.46      9203.057     
   5810000   299.78479     -319945.47      0             -316225.49      9185.3007    
   5820000   299.69271     -319941.18      0             -316222.34      9204.4986    
   5830000   299.06257     -319942.65      0             -316231.63      9186.0428    
   5840000   300.4124      -319931.21      0             -316203.44      9231.107     
   5850000   300.38731     -319942.7       0             -316215.24      9201.1152    
   5860000   300.63683     -319936.53      0             -316205.98      9215.8955    
   5870000   299.96295     -319932.56      0             -316210.37      9211.9022    
   5880000   299.88269     -319932.74      0             -316211.55      9228.7972    
   5890000   298.06066     -319944.43      0             -316245.84      9182.1878    
   5900000   299.56721     -319939.4       0             -316222.12      9192.4856    
   5910000   300.90838     -319942.89      0             -316208.96      9201.8667    
   5920000   298.94934     -319937.76      0             -316228.15      9215.8218    
   5930000   298.69971     -319928.83      0             -316222.31      9223.9857    
   5940000   300.12187     -319938.82      0             -316214.65      9210.8029    
   5950000   300.40021     -319934.38      0             -316206.76      9227.4822    
   5960000   300.71023     -319937.26      0             -316205.79      9225.5156    
   5970000   299.02524     -319948         0             -316237.44      9179.9664    
   5980000   300.6635      -319932.54      0             -316201.65      9231.2509    
   5990000   299.00046     -319952.32      0             -316242.07      9177.0394    
   6000000   299.97949     -319948.91      0             -316226.52      9196.8732    
   6010000   299.38722     -319944.5       0             -316229.45      9186.4978    
   6020000   299.57476     -319944.39      0             -316227.01      9181.8147    
   6030000   299.30316     -319938.75      0             -316224.74      9200.0522    
   6040000   300.51477     -319946.83      0             -316217.79      9193.5469    
   6050000   300.46889     -319937.92      0             -316209.45      9207.3031    
   6060000   299.65703     -319958.86      0             -316240.46      9174.8672    
   6070000   299.14745     -319933.67      0             -316221.6       9217.34      
   6080000   299.65836     -319942.9       0             -316224.49      9195.3482    
   6090000   300.81088     -319930.79      0             -316198.07      9228.222     
   6100000   299.51609     -319935.31      0             -316218.66      9219.2981    
   6110000   299.3054      -319936.01      0             -316221.97      9206.3743    
   6120000   301.27489     -319933.95      0             -316195.47      9223.029     
   6130000   299.7469      -319948.22      0             -316228.7       9191.0138    
   6140000   299.89315     -319935.88      0             -316214.56      9213.6027    
   6150000   298.21965     -319938.66      0             -316238.09      9183.4841    
   6160000   301.25084     -319940.08      0             -316201.91      9199.2985    
   6170000   300.27559     -319953.09      0             -316227.02      9165.0094    
   6180000   300.70388     -319938.61      0             -316207.22      9212.1793    
   6190000   300.55323     -319937.03      0             -316207.51      9211.3672    
   6200000   300.28016     -319926.08      0             -316199.95      9232.4519    
   6210000   297.55058     -319936.38      0             -316244.12      9185.4164    
   6220000   299.9336      -319938.35      0             -316216.52      9210.8493    
   6230000   299.94991     -319952.48      0             -316230.45      9185.0082    
   6240000   299.3366      -319946.97      0             -316232.55      9178.1585    
   6250000   299.86656     -319943.8       0             -316222.81      9186.1194    
   6260000   301.87126     -319933.06      0             -316187.19      9240.6625    
   6270000   299.73348     -319934.58      0             -316215.23      9213.0016    
   6280000   301.24621     -319950.72      0             -316212.6       9198.9297    
   6290000   301.42064     -319932.97      0             -316192.69      9240.6477    
   6300000   300.04206     -319950.67      0             -316227.5       9174.1152    
   6310000   298.73386     -319934.45      0             -316227.51      9214.4277    
   6320000   298.02146     -319936.07      0             -316237.97      9195.1634    
   6330000   298.53059     -319939.84      0             -316235.42      9195.2026    
   6340000   299.29528     -319948.69      0             -316234.78      9185.111     
   6350000   300.03083     -319940.46      0             -316217.43      9194.7326    
   6360000   300.94265     -319930.73      0             -316196.38      9235.6343    
   6370000   298.47941     -319954.08      0             -316250.3       9160.301     
   6380000   300.0395      -319933         0             -316209.86      9224.6334    
   6390000   299.91246     -319941.61      0             -316220.04      9209.1604    
   6400000   299.45696     -319950.88      0             -316234.97      9164.5414    
   6410000   299.14607     -319939.67      0             -316227.61      9188.6714    
   6420000   299.66436     -319941.58      0             -316223.09      9187.2992    
   6430000   300.91742     -319948.1       0             -316214.06      9200.1039    
   6440000   300.05196     -319937.46      0             -316214.16      9203.858     
   6450000   300.71296     -319933.8       0             -316202.3       9230.7307    
   6460000   301.19343     -319946.9       0             -316209.44      9201.9123    
   6470000   298.79103     -319931.28      0             -316223.63      9203.3523    
   6480000   300.18418     -319928.98      0             -316204.04      9237.8786    
   6490000   298.16507     -319940.04      0             -316240.16      9199.0301    
   6500000   300.65095     -319940.23      0             -316209.5       9216.6195    
   6510000   299.38362     -319940.82      0             -316225.81      9209.0495    
   6520000   299.53803     -319933.01      0             -316216.09      9211.7098    
   6530000   298.88196     -319933.05      0             -316224.27      9212.4294    
   6540000   299.81644     -319930.22      0             -316209.85      9226.7558    
   6550000   298.93364     -319941.31      0             -316231.89      9198.4125    
   6560000   300.54049     -319923.28      0             -316193.92      9234.1353    
   6570000   300.02797     -319936.86      0             -316213.86      9202.8543    
   6580000   300.65138     -319933.42      0             -316202.69      9211.3636    
   6590000   299.79534     -319950.64      0             -316230.53      9176.2725    
   6600000   300.54303     -319934.09      0             -316204.7       9219.1408    
   6610000   298.94073     -319935.22      0             -316225.71      9217.2232    
   6620000   298.94855     -319943.81      0             -316234.2       9182.1434    
   6630000   301.65802     -319938.15      0             -316194.92      9236.1968    
   6640000   300.47676     -319946.04      0             -316217.47      9187.5765    
   6650000   299.11262     -319938.33      0             -316226.69      9197.4181    
   6660000   301.33697     -319920.47      0             -316181.22      9263.9147    
   6670000   298.9645      -319931.34      0             -316221.53      9225.9038    
   6680000   300.81054     -319937.36      0             -316204.65      9218.8946    
   6690000   299.9058      -319934.44      0             -316212.96      9220.1665    
   6700000   299.92794     -319952.14      0             -316230.38      9171.7372    
   6710000   299.43043     -319950.22      0             -316234.64      9178.889     
   6720000   300.54185     -319941.24      0             -316211.86      9200.0121    
   6730000   300.17349     -319931.28      0             -316206.48      9230.8642    
   6740000   300.78898     -319933.13      0             -316200.69      9217.1846    
   6750000   299.18463     -319930.95      0             -316218.42      9220.3924    
   6760000   300.02125     -319934.09      0             -316211.17      9212.041     
   6770000   298.52585     -319931.82      0             -316227.46      9209.8625    
   6780000   301.22596     -319939.22      0             -316201.36      9210.5418    
   6790000   300.81499     -319918.88      0             -316186.12      9248.8957    
   6800000   299.32523     -319933.63      0             -316219.35      9220.7334    
   6810000   300.29505     -319938.37      0             -316212.05      9207.767     
   6820000   299.99044     -319938.44      0             -316215.91      9203.9788    
   6830000   299.88001     -319942.29      0             -316221.13      9194.9132    
   6840000   299.82171     -319935.93      0             -316215.48      9219.3864    
   6850000   299.61362     -319934.71      0             -316216.85      9220.6468    
   6860000   300.88812     -319928.06      0             -316194.39      9236.6829    
   6870000   299.06626     -319937.02      0             -316225.96      9199.1494    
   6880000   300.09016     -319945.72      0             -316221.95      9188.3656    
   6890000   299.40531     -319944.85      0             -316229.57      9181.6036    
   6900000   300.33243     -319941.09      0             -316214.31      9208.6776    
   6910000   298.42619     -319947.67      0             -316244.55      9168.856     
   6920000   300.81564     -319930.8       0             -316198.03      9218.1898    
   6930000   300.80467     -319945.25      0             -316212.61      9209.6972    
   6940000   298.45142     -319937.68      0             -316234.25      9184.4466    
   6950000   300.48583     -319938.71      0             -316210.03      9203.8023    
   6960000   300.8823      -319934         0             -316200.4       9217.9009    
   6970000   298.66023     -319942.06      0             -316236.03      9184.454     
   6980000   300.80416     -319929.38      0             -316196.75      9241.9033    
   6990000   299.04811     -319944.3       0             -316233.46      9182.5317    
   7000000   299.1462      -319934.82      0             -316222.76      9219.1201    
   7010000   299.79311     -319935.31      0             -316215.22      9216.0803    
   7020000   300.03147     -319937.26      0             -316214.22      9223.0935    
   7030000   299.99789     -319930.61      0             -316207.98      9229.71      
   7040000   301.10851     -319939.91      0             -316203.5       9212.8281    
   7050000   300.58364     -319937.72      0             -316207.82      9205.6405    
   7060000   300.48615     -319935         0             -316206.31      9215.1851    
   7070000   299.75329     -319935.74      0             -316216.15      9202.2834    
   7080000   299.94979     -319942.66      0             -316220.63      9208.9621    
   7090000   299.76949     -319936.91      0             -316217.11      9211.9312    
   7100000   299.6833      -319945.29      0             -316226.56      9181.8866    
   7110000   299.85645     -319943.72      0             -316222.84      9187.5319    
   7120000   298.93196     -319937.35      0             -316227.95      9208.4473    
   7130000   300.80801     -319942.51      0             -316209.83      9218.0177    
   7140000   300.45451     -319946.85      0             -316218.56      9192.8362    
   7150000   300.43411     -319939.73      0             -316211.69      9207.3266    
   7160000   299.72608     -319932.37      0             -316213.11      9203.6672    
   7170000   300.43426     -319927.13      0             -316199.09      9224.9878    
   7180000   299.75934     -319945.28      0             -316225.61      9198.3975    
   7190000   300.00103     -319939.26      0             -316216.59      9196.1243    
   7200000   298.8477      -319946.27      0             -316237.92      9188.0507    
   7210000   301.51741     -319938.73      0             -316197.25      9219.7759    
   7220000   300.66805     -319932.24      0             -316201.3       9222.9962    
   7230000   300.45323     -319946.34      0             -316218.06      9190.489     
   7240000   301.32468     -319938.44      0             -316199.35      9220.7758    
   7250000   300.80268     -319933.8       0             -316201.18      9235.2913    
   7260000   300.13197     -319935.49      0             -316211.2       9222.9168    
   7270000   300.54691     -319943.83      0             -316214.39      9195.465     
   7280000   298.71026     -319945.03      0             -316238.38      9184.4527    
   7290000   300.24652     -319939.71      0             -316214         9198.2885    
   7300000   300.51207     -319922.01      0             -316193         9238.5911    
   7310000   301.20336     -319928.67      0             -316191.08      9226.9064    
   7320000   300.12629     -319922.51      0             -316198.29      9241.8021    
   7330000   298.56583     -319944.88      0             -316240.02      9191.6641    
   7340000   300.71482     -319938.67      0             -316207.15      9210.2306    
   7350000   298.49764     -319952.31      0             -316248.3       9164.6305    
   7360000   299.85456     -319943.44      0             -316222.59      9192.9129    
   7370000   300.20677     -319941.48      0             -316216.26      9205.4106    
   7380000   299.03269     -319940.78      0             -316230.13      9194.9227    
   7390000   300.30028     -319928.87      0             -316202.49      9236.0123    
   7400000   300.2319      -319952.15      0             -316226.62      9173.1639    
   7410000   300.25419     -319932.59      0             -316206.78      9213.246     
   7420000   300.27873     -319933.31      0             -316207.2       9216.7281    
   7430000   300.73676     -319939.55      0             -316207.75      9214.4149    
   7440000   299.92201     -319937.75      0             -316216.07      9204.2401    
   7450000   300.02451     -319937.13      0             -316214.17      9214.7853    
   7460000   298.59493     -319937.22      0             -316232         9202.6442    
   7470000   300.03465     -319940.04      0             -316216.96      9209.8695    
   7480000   298.9102      -319938.47      0             -316229.34      9197.7239    
   7490000   299.38679     -319938.49      0             -316223.44      9202.8387    
   7500000   299.35318     -319939.45      0             -316224.82      9195.9432    
   7510000   300.34413     -319937.86      0             -316210.94      9221.332     
   7520000   298.72831     -319939.97      0             -316233.1       9191.4865    
   7530000   299.73171     -319945.84      0             -316226.52      9185.9232    
   7540000   300.14826     -319936.84      0             -316212.35      9222.0903    
   7550000   300.75054     -319936.5       0             -316204.53      9204.5243    
   7560000   299.52549     -319935.14      0             -316218.38      9211.7978    
   7570000   299.28287     -319935.37      0             -316221.62      9194.6616    
   7580000   300.75913     -319945.97      0             -316213.9       9197.2028    
   7590000   300.27064     -319946.2       0             -316220.19      9186.0385    
   7600000   299.83887     -319947.05      0             -316226.4       9179.2371    
   7610000   299.68169     -319945.79      0             -316227.09      9176.8765    
   7620000   301.14483     -319935.87      0             -316199.01      9221.2524    
   7630000   299.45966     -319942.91      0             -316226.96      9202.0269    
   7640000   299.08481     -319950.24      0             -316238.94      9179.8208    
   7650000   301.20658     -319941.03      0             -316203.41      9190.0961    
   7660000   299.45728     -319936.22      0             -316220.3       9198.5082    
   7670000   299.55745     -319927.63      0             -316210.47      9228.2151    
   7680000   299.97195     -319933.48      0             -316211.17      9207.5431    
   7690000   299.40258     -319942.98      0             -316227.74      9180.2668    
   7700000   299.97649     -319938.28      0             -316215.92      9209.7794    
   7710000   299.67535     -319939.81      0             -316221.18      9218.9158    
   7720000   299.82454     -319937.71      0             -316217.24      9208.8893    
   7730000   301.01316     -319935.25      0             -316200.03      9222.4451    
   7740000   300.15512     -319940.98      0             -316216.4       9209.5833    
   7750000   298.50689     -319938.14      0             -316234.01      9202.497     
   7760000   298.17987     -319946.23      0             -316246.16      9168.6838    
   7770000   300.32105     -319940.52      0             -316213.88      9218.7625    
   7780000   300.63578     -319930         0             -316199.46      9227.7381    
   7790000   299.8168      -319935.27      0             -316214.89      9223.9096    
   7800000   299.3234      -319933.55      0             -316219.29      9226.2217    
   7810000   299.30681     -319937.03      0             -316222.98      9213.4955    
   7820000   299.74415     -319927.74      0             -316208.26      9229.196     
   7830000   301.27254     -319931.25      0             -316192.8       9225.0604    
   7840000   298.84432     -319939.59      0             -316231.27      9193.1486    
   7850000   300.06256     -319944.94      0             -316221.51      9188.713     
   7860000   300.54214     -319930.62      0             -316201.24      9215.8032    
   7870000   300.30382     -319933.54      0             -316207.12      9219.7017    
   7880000   301.44403     -319929.55      0             -316188.98      9220.5699    
   7890000   299.05363     -319935.66      0             -316224.75      9211.0559    
   7900000   301.3739      -319933.4       0             -316193.69      9223.1423    
   7910000   299.75356     -319939.93      0             -316220.34      9189.208     
   7920000   299.44577     -319933.09      0             -316217.31      9208.9733    
   7930000   300.73697     -319924.76      0             -316192.96      9239.6858    
   7940000   299.30023     -319933.55      0             -316219.58      9220.1341    
   7950000   299.77753     -319935.61      0             -316215.72      9209.3617    
   7960000   300.50026     -319935.05      0             -316206.19      9224.4869    
   7970000   299.83749     -319948.7       0             -316228.06      9181.6392    
   7980000   299.89009     -319929.24      0             -316207.95      9226.2165    
   7990000   300.29239     -319937.26      0             -316210.98      9212.2981    
   8000000   297.90881     -319938.03      0             -316241.33      9181.4945    
   8010000   299.85888     -319947.24      0             -316226.34      9183.4062    
   8020000   299.20197     -319936.87      0             -316224.12      9195.2224    
   8030000   300.54018     -319943.3       0             -316213.95      9199.3236    
   8040000   300.81219     -319934.25      0             -316201.51      9217.7642    
   8050000   300.04887     -319933.43      0             -316210.17      9209.6927    
   8060000   298.95179     -319941.64      0             -316231.99      9191.2616    
   8070000   299.92073     -319934.71      0             -316213.04      9205.7864    
   8080000   300.12832     -319939.92      0             -316215.68      9194.4373    
   8090000   299.75608     -319947.78      0             -316228.16      9189.3989    
   8100000   300.08813     -319928.01      0             -316204.26      9230.7585    
   8110000   299.92648     -319933.51      0             -316211.77      9212.4809    
   8120000   300.29783     -319937.76      0             -316211.41      9213.2483    
   8130000   299.53318     -319949.29      0             -316232.43      9183.3597    
   8140000   301.65783     -319937.64      0             -316194.42      9208.1669    
   8150000   299.682       -319925.88      0             -316207.17      9217.8207    
   8160000   300.32756     -319938.22      0             -316211.51      9202.5523    
   8170000   299.05519     -319942.27      0             -316231.34      9201.2973    
   8180000   300.78761     -319932.23      0             -316199.81      9229.3754    
   8190000   299.06698     -319935.56      0             -316224.49      9212.9733    
   8200000   300.0333      -319922.51      0             -316199.44      9239.5509    
   8210000   299.55089     -319947.88      0             -316230.8       9175.399     
   8220000   299.17905     -319953.71      0             -316241.24      9159.2063    
   8230000   301.0778      -319939.88      0             -316203.86      9219.439     
   8240000   300.29563     -319936.36      0             -316210.04      9213.2312    
   8250000   299.54775     -319931.25      0             -316214.21      9206.9337    
   8260000   301.18122     -319935.51      0             -316198.2       9220.783     
   8270000   299.87747     -319938.85      0             -316217.72      9194.7276    
   8280000   299.57252     -319942.44      0             -316225.09      9193.2641    
   8290000   299.16644     -319945.07      0             -316232.76      9195.9458    
   8300000   300.05137     -319924.42      0             -316201.13      9251.8746    
   8310000   299.59823     -319936.41      0             -316218.74      9205.4556    
   8320000   299.27724     -319934.21      0             -316220.52      9225.6443    
   8330000   299.45718     -319935.35      0             -316219.43      9207.9011    
   8340000   299.86089     -319950.31      0             -316229.39      9175.9636    
   8350000   300.49532     -319936.12      0             -316207.32      9212.6771    
   8360000   300.59664     -319945.99      0             -316215.94      9198.7736    
   8370000   299.99898     -319939.67      0             -316217.03      9205.6409    
   8380000   300.27469     -319940.53      0             -316214.47      9209.6738    
   8390000   299.23092     -319936.25      0             -316223.14      9212.6462    
   8400000   300.72968     -319936.33      0             -316204.63      9211.9659    
   8410000   301.5468      -319939.5       0             -316197.65      9221.1349    
   8420000   300.42409     -319948.18      0             -316220.26      9179.3369    
   8430000   300.30786     -319933.46      0             -316206.99      9214.2859    
   8440000   298.76777     -319930.62      0             -316223.26      9213.1582    
   8450000   300.16597     -319925.45      0             -316200.73      9235.0482    
   8460000   300.42125     -319931.6       0             -316203.72      9216.477     
   8470000   300.77634     -319944.77      0             -316212.48      9198.998     
   8480000   298.68866     -319938.79      0             -316232.41      9189.1376    
   8490000   299.13294     -319935.59      0             -316223.69      9221.475     
   8500000   299.58271     -319929.76      0             -316212.29      9220.452     
   8510000   299.67576     -319939.04      0             -316220.41      9202.7795    
   8520000   299.23019     -319925.71      0             -316212.61      9231.6062    
   8530000   300.88342     -319945.31      0             -316211.69      9200.6973    
   8540000   298.94024     -319923.35      0             -316213.84      9221.2674    
   8550000   299.68801     -319944.09      0             -316225.31      9203.7465    
   8560000   299.79038     -319931.73      0             -316211.68      9222.2336    
   8570000   300.80903     -319935.85      0             -316203.16      9215.0276    
   8580000   299.86464     -319940.56      0             -316219.59      9205.2681    
   8590000   298.80461     -319929.59      0             -316221.77      9220.1087    
   8600000   299.74727     -319942.24      0             -316222.73      9185.1772    
   8610000   301.28488     -319921.14      0             -316182.54      9254.6876    
   8620000   298.93914     -319941.62      0             -316232.13      9179.5798    
   8630000   299.17492     -319941.48      0             -316229.06      9192.1174    
   8640000   298.98512     -319946.21      0             -316236.15      9187.0803    
   8650000   298.70218     -319944.36      0             -316237.81      9177.7336    
   8660000   300.00371     -319940.68      0             -316217.98      9190.328     
   8670000   299.71235     -319945.88      0             -316226.79      9178.792     
   8680000   300.21303     -319942.75      0             -316217.46      9216.3723    
   8690000   299.49738     -319941.28      0             -316224.87      9192.2456    
   8700000   301.03337     -319942.94      0             -316207.47      9198.9066    
   8710000   299.34598     -319928.75      0             -316214.21      9214.1883    
   8720000   299.55372     -319938.16      0             -316221.04      9203.0159    
   8730000   302.78042     -319928.32      0             -316171.17      9257.2439    
   8740000   300.94116     -319943.19      0             -316208.86      9195.6434    
   8750000   298.60056     -319936.12      0             -316230.83      9201.5659    
   8760000   301.13959     -319935.55      0             -316198.75      9235.6153    
   8770000   299.31704     -319933.05      0             -316218.87      9219.9856    
   8780000   300.99143     -319938.95      0             -316204         9214.4978    
   8790000   299.26618     -319933.06      0             -316219.51      9218.5875    
   8800000   299.94078     -319933.36      0             -316211.44      9222.9042    
   8810000   298.49883     -319939.08      0             -316235.06      9203.5247    
   8820000   299.77712     -319940.09      0             -316220.2       9199.7069    
   8830000   300.3473      -319934.29      0             -316207.33      9218.869     
   8840000   299.69874     -319942.19      0             -316223.28      9201.1463    
   8850000   298.47169     -319949.52      0             -316245.83      9158.3131    
   8860000   299.88604     -319926.27      0             -316205.03      9225.3897    
   8870000   299.77991     -319936.89      0             -316216.96      9209.3596    
   8880000   299.91427     -319939.72      0             -316218.13      9194.0833    
   8890000   301.15928     -319951.51      0             -316214.47      9189.716     
   8900000   299.7657      -319947.55      0             -316227.8       9174.8401    
   8910000   301.13879     -319933.07      0             -316196.29      9218.6152    
   8920000   300.67139     -319930.94      0             -316199.96      9213.0582    
   8930000   300.20375     -319931.34      0             -316206.16      9221.5512    
   8940000   299.214       -319931.35      0             -316218.45      9212.4813    
   8950000   302.18152     -319938.18      0             -316188.46      9216.4076    
   8960000   299.76243     -319936.57      0             -316216.86      9209.1135    
   8970000   300.83385     -319936.85      0             -316203.85      9209.3997    
   8980000   300.11879     -319931.86      0             -316207.73      9215.6473    
   8990000   301.12509     -319937.41      0             -316200.8       9199.5448    
   9000000   300.10165     -319938.64      0             -316214.73      9221.7714    
   9010000   300.56658     -319936.82      0             -316207.14      9206.3879    
   9020000   299.60312     -319941.05      0             -316223.32      9206.8102    
   9030000   300.14658     -319932.79      0             -316208.32      9209.5647    
   9040000   298.78736     -319936.33      0             -316228.72      9211.9688    
   9050000   300.83315     -319938.42      0             -316205.43      9211.2367    
   9060000   298.88237     -319928.05      0             -316219.26      9229.4384    
   9070000   301.2363      -319931.37      0             -316193.38      9244.5756    
   9080000   300.24034     -319939.27      0             -316213.64      9203.0042    
   9090000   300.26717     -319954.8       0             -316228.83      9174.7469    
   9100000   298.33717     -319936.51      0             -316234.49      9197.1363    
   9110000   299.59357     -319942.28      0             -316224.67      9187.2873    
   9120000   300.51056     -319929.93      0             -316200.95      9248.9584    
   9130000   301.07857     -319931.05      0             -316195.01      9234.5927    
   9140000   300.90383     -319933.1       0             -316199.23      9224.6762    
   9150000   298.69198     -319947.9       0             -316241.47      9158.0681    
   9160000   298.90228     -319933.16      0             -316224.12      9204.5979    
   9170000   299.57537     -319931.44      0             -316214.06      9214.0078    
   9180000   300.95665     -319936.32      0             -316201.8       9225.3789    
   9190000   300.37475     -319934.8       0             -316207.5       9211.1003    
   9200000   299.72982     -319941.82      0             -316222.52      9206.1102    
   9210000   299.81383     -319939.5       0             -316219.15      9202.7433    
   9220000   299.66746     -319944.81      0             -316226.28      9181.985     
   9230000   300.27877     -319923.65      0             -316197.53      9244.7071    
   9240000   300.64879     -319937.23      0             -316206.52      9216.3033    
   9250000   299.66906     -319932.35      0             -316213.8       9211.3814    
   9260000   298.30744     -319935.2       0             -316233.55      9197.2187    
   9270000   299.37339     -319934.41      0             -316219.53      9211.3058    
   9280000   300.91229     -319931.99      0             -316198.02      9238.302     
   9290000   300.35934     -319933.5       0             -316206.39      9209.8504    
   9300000   300.13752     -319942.51      0             -316218.15      9198.8395    
   9310000   300.0755      -319940.45      0             -316216.86      9194.7621    
   9320000   300.68768     -319929.78      0             -316198.6       9234.8732    
   9330000   300.63593     -319928.54      0             -316198         9241.7138    
   9340000   300.0977      -319943.21      0             -316219.34      9218.6063    
   9350000   299.96003     -319925.23      0             -316203.08      9247.6663    
   9360000   300.63288     -319935.77      0             -316205.26      9212.9789    
   9370000   298.96796     -319938.4       0             -316228.55      9202.8795    
   9380000   299.58798     -319933.66      0             -316216.12      9225.535     
   9390000   299.57747     -319937.32      0             -316219.91      9215.5157    
   9400000   300.31802     -319933.71      0             -316207.11      9225.6517    
   9410000   299.75062     -319943.62      0             -316224.06      9190.9604    
   9420000   300.61342     -319925.01      0             -316194.74      9245.4002    
   9430000   300.80312     -319930.34      0             -316197.72      9216.2529    
   9440000   298.88687     -319931.24      0             -316222.4       9212.4291    
   9450000   299.84102     -319943.75      0             -316223.07      9189.4954    
   9460000   299.56755     -319941.88      0             -316224.6       9192.6954    
   9470000   299.93793     -319942.59      0             -316220.71      9203.3374    
   9480000   300.75882     -319930.98      0             -316198.91      9232.653     
   9490000   301.84226     -319923.77      0             -316178.26      9267.2684    
   9500000   299.48498     -319933.55      0             -316217.29      9225.8619    
   9510000   301.07248     -319934.3       0             -316198.34      9216.8756    
   9520000   298.65042     -319947.3       0             -316241.39      9174.726     
   9530000   299.80414     -319939.46      0             -316219.23      9198.0828    
   9540000   299.20105     -319931.95      0             -316219.21      9203.5605    
   9550000   300.88841     -319931.62      0             -316197.94      9235.4901    
   9560000   300.69471     -319944.53      0             -316213.25      9193.4183    
   9570000   299.65618     -319944.7       0             -316226.32      9193.4198    
   9580000   299.79293     -319944.73      0             -316224.65      9206.402     
   9590000   300.01807     -319932.04      0             -316209.17      9216.304     
   9600000   301.51735     -319919.94      0             -316178.45      9269.7071    
   9610000   300.33356     -319935.46      0             -316208.66      9215.641     
   9620000   300.00513     -319933.9       0             -316211.18      9221.0355    
   9630000   300.43857     -319934.37      0             -316206.28      9215.4945    
   9640000   300.98094     -319941.48      0             -316206.66      9209.1337    
   9650000   300.21976     -319947.04      0             -316221.66      9191.1712    
   9660000   299.9896      -319942.63      0             -316220.1       9185.5819    
   9670000   299.91884     -319942.94      0             -316221.29      9191.1143    
   9680000   299.54551     -319928.99      0             -316211.98      9216.158     
   9690000   299.92604     -319925.61      0             -316203.88      9238.551     
   9700000   299.33739     -319939.12      0             -316224.68      9221.5111    
   9710000   300.35447     -319932.38      0             -316205.33      9224.2319    
   9720000   300.53125     -319938.67      0             -316209.43      9192.8484    
   9730000   298.86508     -319938.14      0             -316229.57      9199.6642    
   9740000   299.85102     -319946.59      0             -316225.79      9192.464     
   9750000   300.84463     -319937.27      0             -316204.14      9209.0548    
   9760000   299.92161     -319920.95      0             -316199.27      9240.269     
   9770000   299.07056     -319935         0             -316223.88      9205.2957    
   9780000   300.72935     -319938.89      0             -316207.19      9221.2182    
   9790000   300.51313     -319935.1       0             -316206.08      9230.7497    
   9800000   299.45114     -319945.72      0             -316229.88      9188.1043    
   9810000   299.24892     -319931.19      0             -316217.85      9219.8969    
   9820000   299.70476     -319948.27      0             -316229.28      9186.2992    
   9830000   299.73466     -319933.58      0             -316214.22      9216.009     
   9840000   300.30478     -319935.25      0             -316208.81      9215.3673    
   9850000   300.16342     -319926.31      0             -316201.63      9234.3703    
   9860000   300.71413     -319929.42      0             -316197.9       9232.6691    
   9870000   300.6464      -319925.52      0             -316194.84      9238.8427    
   9880000   300.3607      -319926.46      0             -316199.33      9233.5621    
   9890000   300.55656     -319925.84      0             -316196.28      9236.836     
   9900000   299.89787     -319935.91      0             -316214.53      9210.169     
   9910000   298.58259     -319946.02      0             -316240.95      9170.2093    
   9920000   300.23075     -319929.08      0             -316203.56      9227.0406    
   9930000   299.85529     -319940.22      0             -316219.36      9199.341     
   9940000   299.12866     -319940.23      0             -316228.39      9187.131     
   9950000   300.98007     -319924.73      0             -316189.92      9250.7982    
   9960000   299.41331     -319940.55      0             -316225.18      9181.6691    
   9970000   300.18232     -319941.38      0             -316216.47      9202.093     
   9980000   298.22638     -319941.88      0             -316241.24      9172.9398    
   9990000   299.58281     -319934.37      0             -316216.89      9211.6242    
  10000000   298.56458     -319928.44      0             -316223.6       9223.6414    
  10010000   299.8446      -319938.63      0             -316217.91      9216.1539    
  10020000   300.08214     -319927.99      0             -316204.31      9236.7925    
  10030000   299.54804     -319945.09      0             -316228.04      9187.054     
  10040000   299.32826     -319936.36      0             -316222.05      9197.4355    
  10050000   298.81047     -319933.85      0             -316225.96      9198.8179    
  10060000   299.50362     -319937.05      0             -316220.56      9200.7901    
  10070000   298.08104     -319941.85      0             -316243.01      9197.6161    
  10080000   300.73776     -319943.6       0             -316211.79      9191.2658    
  10090000   299.52561     -319941.77      0             -316225.01      9210.3039    
  10100000   299.7823      -319932.67      0             -316212.71      9206.7244    
  10110000   300.5021      -319936.01      0             -316207.13      9221.1856    
  10120000   299.39941     -319944.84      0             -316229.64      9196.6605    
  10130000   298.66393     -319935.08      0             -316229         9211.6594    
  10140000   299.43767     -319943.24      0             -316227.57      9196.4011    
  10150000   300.53316     -319933.74      0             -316204.47      9224.0428    
  10160000   300.5306      -319937.65      0             -316208.41      9217.5355    
  10170000   301.1489      -319940.07      0             -316203.16      9217.4502    
  10180000   300.3565      -319946.01      0             -316218.93      9196.3004    
  10190000   299.34661     -319934.06      0             -316219.51      9216.9093    
  10200000   300.17071     -319935         0             -316210.23      9216.2592    
  10210000   301.37361     -319930         0             -316190.3       9240.7947    
  10220000   299.73646     -319924.78      0             -316205.4       9221.2421    
  10230000   300.11629     -319930.21      0             -316206.12      9220.5645    
  10240000   301.47248     -319930.88      0             -316189.95      9240.4004    
  10250000   299.79557     -319937.68      0             -316217.57      9200.6522    
  10260000   298.25894     -319929.19      0             -316228.14      9209.4882    
  10270000   300.28064     -319935.54      0             -316209.4       9206.7006    
  10280000   299.40995     -319921.9       0             -316206.57      9235.8547    
  10290000   298.69468     -319941.5       0             -316235.05      9179.511     
  10300000   299.64536     -319932         0             -316213.75      9215.5696    
  10310000   300.26571     -319934.09      0             -316208.14      9231.3031    
  10320000   298.98662     -319943.97      0             -316233.89      9187.2616    
  10330000   299.5257      -319934.15      0             -316217.38      9219.3809    
  10340000   299.38246     -319940.15      0             -316225.16      9205.5083    
  10350000   300.59923     -319940.86      0             -316210.77      9208.6057    
  10360000   300.51584     -319931.53      0             -316202.47      9234.7627    
  10370000   301.01226     -319935.97      0             -316200.75      9221.9128    
  10380000   300.14293     -319935.75      0             -316211.33      9202.2545    
  10390000   299.59575     -319931.31      0             -316213.68      9233.5169    
  10400000   299.1453      -319932.95      0             -316220.91      9215.1326    
  10410000   300.64726     -319933.87      0             -316203.18      9242.5786    
  10420000   300.62338     -319934.69      0             -316204.3       9218.5823    
  10430000   298.88171     -319924.62      0             -316215.84      9219.301     
  10440000   299.77406     -319939.09      0             -316219.24      9201.6391    
  10450000   300.57287     -319949.33      0             -316219.57      9177.3512    
  10460000   300.2621      -319932.7       0             -316206.8       9214.8872    
  10470000   300.61085     -319931.42      0             -316201.19      9233.4258    
  10480000   299.10049     -319934.45      0             -316222.96      9214.6242    
  10490000   300.81797     -319939.58      0             -316206.78      9218.9799    
  10500000   300.06276     -319929.67      0             -316206.24      9231.9438    
  10510000   300.18511     -319931.02      0             -316206.07      9223.8458    
  10520000   301.60224     -319948.93      0             -316206.4       9204.903     
  10530000   300.29638     -319934.47      0             -316208.14      9220.4619    
  10540000   301.63631     -319943.54      0             -316200.58      9208.9584    
  10550000   300.3079      -319927.04      0             -316200.56      9236.4015    
  10560000   300.76175     -319929.49      0             -316197.38      9231.1447    
  10570000   301.07294     -319934.36      0             -316198.4       9222.5722    
  10580000   299.56679     -319928.46      0             -316211.18      9214.6959    
  10590000   299.6006      -319938.25      0             -316220.55      9210.4142    
  10600000   298.97081     -319937.62      0             -316227.74      9201.3799    
  10610000   299.59097     -319932.89      0             -316215.31      9215.9434    
  10620000   300.0033      -319949.37      0             -316226.68      9179.4103    
  10630000   299.59193     -319952.74      0             -316235.16      9168.5257    
  10640000   298.20631     -319934.65      0             -316234.26      