ITEM: TIMESTEP
100000000
ITEM: NUMBER OF ATOMS
256
ITEM: BOX BOUNDS pp pp pp
0.0000000000000000e+00 1.6184000000000001e+01
0.0000000000000000e+00 1.6184000000000001e+01
0.0000000000000000e+00 1.6184000000000001e+01
ITEM: ATOMS id type x y z vx vy vz
1 1 5.0205 12.9319 8.17245 1.87349 0.702563 -10.3378
2 1 7.00582 15.1881 7.76007 1.77368 0.993905 -4.55728
3 1 5.17199 15.1832 10.0899 -0.281294 -1.52874 -3.46144
4 1 7.10884 13.1971 10.1824 -1.91035 -0.974971 -2.60801
5 1 9.07197 13.0839 8.15313 -0.655003 -0.226046 4.84862
6 1 11.0259 15.3143 8.08756 1.43536 -1.75033 2.09346
7 1 9.03564 15.0757 9.9318 10.1681 1.00305 2.24542
8 1 10.9621 13.0102 10.0718 -2.91581 0.288761 -0.40189
9 1 12.9861 13.2124 8.22366 -2.46077 -0.0718539 2.82642
10 1 15.2518 15.2261 8.14935 -0.644455 2.04663 1.60425
11 1 13.0649 15.2694 10.167 1.59369 3.42283 -2.01576
12 1 15.1707 13.0109 10.1311 -2.3879 0.452464 -4.16717
13 1 1.04473 13.2281 8.02488 -4.07729 2.34381 -4.53216
14 1 3.08309 15.1849 8.03944 -4.09942 0.129384 1.24161
15 1 1.07296 15.1885 10.2152 -4.22236 0.344512 -2.02515
16 1 3.08784 13.3894 10.2066 3.68023 -6.28713 -1.93163
17 1 5.0417 0.976492 8.28508 2.10844 1.1808 -2.54444
18 1 7.14061 3.2129 8.08676 -4.34277 -0.41673 1.58739
19 1 5.01395 3.03833 10.1451 2.29875 -2.30991 -1.05306
20 1 6.98711 0.990619 9.9852 1.25131 -0.525405 0.763851
21 1 9.06374 1.1016 8.1051 0.882463 -0.187001 -3.87634
22 1 11.0628 3.08348 8.13636 -0.476436 -1.58086 -3.30226
23 1 9.12407 3.22346 10.0571 1.70045 0.517552 -1.18777
24 1 11.1222 1.05607 10.3122 -2.13482 -6.0462 -2.40349
25 1 13.1351 0.908371 8.21739 -0.998775 3.67288 -0.286777
26 1 15.032 3.05754 8.00639 2.76619 2.34556 -4.38367
27 1 13.1974 2.94609 10.1307 -1.75119 -0.0965049 4.55152
28 1 15.2526 1.014 10.0916 5.11349 0.139582 -4.03879
29 1 0.975 1.0297 8.07698 0.799742 1.67666 1.0345
30 1 3.03445 3.05268 8.13045 1.10079 1.67726 -2.54147
31 1 0.969311 3.0649 10.0865 1.77906 -0.659426 2.19884
32 1 2.9395 1.00871 10.1689 -3.17461 1.17837 -4.01185
33 1 4.95463 4.99667 8.14918 1.97995 -0.797687 -1.85927
34 1 7.07473 7.05875 7.99715 5.34106 4.79952 0.576351
35 1 4.97647 7.03785 10.0493 -3.78929 -2.24804 1.75709
36 1 7.17754 5.0568 10.0986 -2.7131 1.25132 2.62863
37 1 9.17193 5.20272 8.01134 -5.73065 2.45058 -1.10191
38 1 11.2323 7.15492 8.08329 -1.78175 -4.00465 0.063104
39 1 9.08344 6.9929 10.1532 -1.85729 2.55919 -4.70049
40 1 11.1707 5.19382 10.0965 1.59905 0.123045 -6.59305
41 1 13.1021 5.06985 8.06414 1.83341 3.27391 -3.39027
42 1 15.2812 7.04222 8.04011 3.03801 -1.26069 2.50449
43 1 13.3333 7.03451 9.95345 -1.95572 4.31175 1.64208
44 1 15.2488 5.06338 10.1366 -0.14057 0.595677 1.22657
45 1 1.04612 5.11453 8.198 -0.570923 -0.227659 -0.11306
46 1 3.07415 7.12965 8.0852 5.90675 2.15391 -1.27796
47 1 0.965044 7.25907 10.1453 2.60349 -2.42137 -3.60768
48 1 3.0771 5.07441 10.0733 3.43975 -1.87045 -1.71199
49 1 5.21805 9.05333 8.05177 -2.70465 -3.05457 1.65171
50 1 7.14256 11.0611 7.93665 -2.69415 5.14573 -0.622339
51 1 5.34585 11.002 10.1269 3.73061 -2.45789 2.27825
52 1 7.06547 9.05851 10.0346 0.654249 -1.11124 -0.630039
53 1 9.1884 9.17527 8.07092 -0.243109 -3.04706 -7.85831
54 1 11.1431 11.1252 8.12859 -1.26894 -3.95462 0.890868
55 1 9.01947 10.9596 10.1094 -1.01704 0.482665 -2.12328
56 1 11.1058 9.15737 10.2396 -2.99805 -3.05858 -3.10472
57 1 13.0904 9.10015 8.08344 -5.052 -2.8709 1.83115
58 1 15.2692 11.1523 8.09766 -2.28104 -4.82011 4.79486
59 1 13.189 11.2197 10.1352 -0.207744 1.09378 0.731301
60 1 15.146 9.24333 10.1828 1.67787 6.70345 -1.05166
61 1 0.938724 9.08468 8.09298 3.82105 -5.52492 2.66496
62 1 3.06284 11.0026 7.91437 6.60349 -1.90325 0.281694
63 1 1.14178 11.2491 10.1369 -1.94814 -1.5805 -1.24221
64 1 3.13654 9.2287 10.0784 2.53266 -2.24726 -0.925684
65 1 5.09607 13.1484 12.2331 0.663483 2.96579 -0.760174
66 1 7.08275 15.1726 12.1078 -1.91338 0.929555 -0.262052
67 1 5.03202 15.2966 14.1567 2.98942 -2.43275 -1.80571
68 1 7.02147 13.2911 14.1602 -0.270109 -1.20636 1.62472
69 1 9.15 13.117 12.1023 1.44669 -0.975162 -2.58554
70 1 10.9865 15.1756 12.05 5.05633 3.58854 -4.91193
71 1 9.13231 15.1787 14.0786 -0.148039 0.993222 -0.111388
72 1 11.1394 13.0379 14.3108 5.30474 0.480965 -1.35725
73 1 13.0277 13.396 12.0473 -3.241 -0.0744047 -1.39053
74 1 15.2149 15.2083 12.094 2.57224 2.12209 -2.42034
75 1 13.1214 15.2697 14.0383 -1.37546 2.38599 2.35672
76 1 15.1612 13.3058 14.0242 -2.50351 -2.07913 2.18094
77 1 1.03805 13.2267 12.2038 -3.22171 -0.048443 -0.64325
78 1 3.15781 15.2676 12.1471 1.63893 9.00017 -3.6018
79 1 1.0534 15.3268 13.9648 1.11941 1.90908 -1.75702
80 1 3.14845 13.0542 14.2248 5.10467 -2.85886 -0.199743
81 1 5.30435 1.10192 12.1706 5.50644 3.95079 2.2933
82 1 7.04698 3.12243 12.0728 -5.33113 -2.2821 1.15862
83 1 5.02324 3.1306 14.1585 -1.0994 3.32701 -5.36856
84 1 7.24623 1.09425 14.0574 1.05111 0.523518 0.615746
85 1 9.02409 1.01948 12.0582 -0.258626 -0.228138 1.77348
86 1 11.1125 2.98202 12.2792 -3.05234 2.33114 -2.44526
87 1 9.26654 3.19821 14.2396 -4.00627 3.15343 1.94614
88 1 11.1592 1.00819 14.2124 -0.444871 -1.82064 2.53843
89 1 13.0773 1.01383 12.1532 0.516272 1.85068 2.95427
90 1 15.0265 3.14214 12.2016 -2.87151 -1.06522 1.60133
91 1 13.1201 3.01822 14.2406 -2.77343 3.2872 7.71345
92 1 15.1726 1.08559 14.2502 1.48891 -3.67592 0.160668
93 1 0.927794 1.0899 12.1833 3.61619 -1.24222 2.14938
94 1 2.96385 2.91316 12.2273 0.179694 2.03346 2.59279
95 1 0.868989 3.10672 14.0898 -3.39978 1.64596 -2.2315
96 1 3.07897 1.04287 14.1977 2.88159 0.493695 8.03481
97 1 5.00217 4.95957 12.1466 -2.6434 -1.43604 -1.29546
98 1 6.99427 6.99933 12.0365 2.62588 -3.67747 -1.42487
99 1 4.99766 7.06426 14.3402 -2.77354 -2.27988 -2.56533
100 1 6.87136 5.02114 14.0742 -3.44534 0.165524 1.3231
101 1 9.12802 5.14169 12.3612 0.143959 3.10838 -0.516026
102 1 11.1377 7.16695 12.1808 1.7129 -0.634594 -0.660349
103 1 8.9966 7.11512 14.1812 -0.834478 1.2898 3.83827
104 1 11.2075 5.24495 14.328 2.31706 -1.03504 1.46157
105 1 13.0873 5.15087 12.2753 -4.05761 -3.73458 -0.0517822
106 1 15.1145 7.09127 12.0247 -4.79419 0.988673 -2.2239
107 1 13.3401 7.1393 14.0974 -8.31774 6.7123 -1.9452
108 1 15.19 5.06579 14.2065 -0.427813 2.36529 3.26279
109 1 1.14375 5.12924 12.0318 -4.2907 2.67925 0.349976
110 1 3.19503 7.07409 12.144 2.51732 2.16142 2.86503
111 1 1.08952 7.1426 14.1714 -1.87828 0.882117 -0.0270621
112 1 3.1604 5.01739 13.9998 -2.75464 0.0338629 -2.4874
113 1 5.1004 9.065 12.2211 0.494787 -2.65191 -2.37631
114 1 7.11695 11.1958 12.1859 -0.934905 -2.67305 -1.79811
115 1 5.15415 11.1473 14.1989 -0.365588 2.1134 -0.583518
116 1 7.09143 9.2928 14.2124 0.468126 -4.74752 1.87831
117 1 8.92857 8.9893 12.08 7.7628 2.52177 3.90401
118 1 10.9884 11.1078 12.2394 -1.81988 1.56645 -0.665174
119 1 9.09929 11.0817 14.3437 2.36706 -3.07735 -1.43243
120 1 11.181 9.35286 14.2435 5.38723 1.66651 1.34394
121 1 13.0337 9.16723 12.1526 0.861327 -0.522827 -0.193269
122 1 15.222 11.0451 12.1276 3.73182 -2.10423 -5.51366
123 1 13.2609 11.2418 14.1773 -0.213258 7.10964 -1.57646
124 1 15.1573 9.27824 14.1944 1.47007 0.109354 5.12954
125 1 1.07968 9.21179 11.9935 2.51584 4.11803 -5.84011
126 1 3.28149 11.2778 12.0156 -1.64063 0.758282 1.75597
127 1 0.976996 11.1858 14.1746 -4.48735 2.75007 2.09425
128 1 3.03738 9.1647 14.1349 3.22323 3.27033 3.52163
129 1 5.03813 13.2929 0.110856 0.629893 -2.05862 -2.7376
130 1 7.08532 15.3431 16.0881 -1.33437 -1.2633 0.292863
131 1 5.07759 15.3088 1.85117 4.17536 5.13287 -1.42623
132 1 7.11061 13.2311 1.93865 1.67831 -4.11608 -2.39437
133 1 9.18035 13.1921 0.0542249 -2.28191 2.46537 1.15481
134 1 11.0239 15.2204 0.084204 1.10688 -0.865858 -1.05703
135 1 9.12314 15.2687 1.98283 1.86866 5.2722 -3.15317
136 1 11.0026 13.1108 2.23088 1.13769 -0.334981 1.74233
137 1 13.1024 13.1092 16.193 0.585943 -1.64677 1.64909
138 1 15.2181 15.2002 -0.00021195 -0.162913 -1.24886 -0.416079
139 1 13.0446 15.2088 1.86062 -4.86282 -0.329666 -0.997094
140 1 15.0276 13.2414 2.14056 1.62371 -0.0109175 -1.5988
141 1 0.932794 13.2391 15.8567 -4.32812 -2.35477 1.38069
142 1 3.02483 15.2301 -0.0332903 -0.0687778 0.0824693 -5.01607
143 1 1.08192 15.1906 2.05778 -6.36484 -0.972868 -3.05085
144 1 2.97643 13.0944 1.84632 2.11108 2.1045 5.70426
145 1 4.90259 1.26236 0.0461692 2.91552 -3.3735 -0.864669
146 1 6.98392 2.99988 16.1816 2.29545 -0.115529 2.30235
147 1 4.88082 3.0931 1.99066 2.82261 0.528806 -0.403342
148 1 7.12032 1.13106 2.13162 0.0704034 -0.813956 0.736097
149 1 9.16778 1.1975 16.0963 0.200722 -3.4548 -0.995598
150 1 11.1344 3.1088 0.0314081 1.53912 -2.25879 -4.57854
151 1 9.20189 3.20281 1.82675 5.68073 0.93599 1.03386
152 1 11.0262 1.18813 2.03796 0.708481 5.91616 0.150126
153 1 13.1186 0.945728 -0.0351629 1.89303 -1.45087 -5.91195
154 1 15.036 3.18402 0.0273523 4.85954 -1.0759 -1.12549
155 1 13.036 3.25134 2.03248 -0.0982602 -1.07992 0.970553
156 1 15.3974 1.08436 1.93047 1.13909 -1.94773 -1.45925
157 1 0.948413 1.12239 0.0015978 1.67953 -2.831 -2.00012
158 1 2.89713 3.11673 16.1027 2.9793 -4.07737 -8.56426
159 1 0.910895 3.12764 2.04163 -0.735849 -6.44155 -4.95618
160 1 2.94858 1.13831 1.91843 -3.31852 0.902601 1.86726
161 1 4.98689 4.97809 0.0562696 -3.04091 -7.17189 -5.22706
162 1 6.98341 7.15461 0.0823077 0.310078 1.42218 0.686841
163 1 5.02152 7.30503 2.11745 -0.929828 1.05772 -0.0425824
164 1 6.98874 5.1784 2.10272 -0.00041353 0.976994 4.47128
165 1 8.90187 5.17419 16.1567 5.4368 -1.43244 1.47405
166 1 11.1703 7.23882 16.1532 0.294052 0.421407 -0.850944
167 1 9.13623 7.0379 2.15777 -3.09673 -5.41349 1.84294
168 1 11.0996 5.22602 1.95078 2.58508 -3.56007 -4.80497
169 1 13.169 5.13424 0.158167 0.349409 0.128857 -2.92627
170 1 15.1957 7.03253 16.1192 -2.23703 -4.33519 0.72933
171 1 13.2312 7.2735 2.07154 -6.38186 -1.03765 1.02319
172 1 15.1965 5.11929 2.078 4.32378 -5.15857 -1.49027
173 1 1.03072 4.94546 16.1711 -5.47756 -6.20246 3.10395
174 1 3.06148 7.06679 0.0686296 -3.01322 1.56837 1.53969
175 1 0.993552 7.06281 2.20309 -3.69342 2.39963 -0.577418
176 1 3.15932 5.0541 1.95713 2.47566 0.057687 -2.67666
177 1 5.08423 9.17733 16.0897 1.32104 -1.04732 0.905663
178 1 7.11958 11.1836 0.0737396 -0.313479 -3.32802 -0.643515
179 1 5.04465 11.0736 1.93007 -3.2247 3.08708 4.11268
180 1 7.0612 9.13446 2.04371 0.825262 -2.27438 2.40127
181 1 9.11281 9.08432 0.138681 2.60272 -2.37761 -1.66103
182 1 11.0709 11.2535 0.195312 -5.16849 -0.846737 1.58188
183 1 9.0652 11.1758 2.05146 -1.59895 1.1223 -4.07145
184 1 11.2233 9.1758 2.11572 2.35095 -3.13522 2.11761
185 1 13.1166 9.11869 16.0714 -0.498522 3.02877 -0.834323
186 1 15.1629 11.3205 16.1318 3.12834 -1.8328 -0.565272
187 1 13.1655 11.1497 2.11322 0.519061 3.66645 5.60369
188 1 15.1101 9.15299 1.84781 -1.93045 4.28684 -2.75016
189 1 1.12309 9.08178 0.136185 2.59044 1.15722 1.89172
190 1 3.06891 11.0139 0.0702457 1.2721 3.08141 -2.21994
191 1 0.969547 11.2608 2.02475 1.11783 -0.30752 -1.37746
192 1 2.94801 9.12969 2.10257 -3.5274 -2.07411 -4.19423
193 1 5.02776 13.1721 3.90386 1.75281 -0.929338 2.14686
194 1 7.06202 15.4183 4.07558 -3.22368 0.921325 -2.45233
195 1 4.98423 15.1973 6.05335 1.17861 0.180442 -0.273274
196 1 7.01581 13.2081 6.0894 4.5919 3.1182 1.52896
197 1 8.8988 13.1444 4.02945 -2.85136 1.75735 0.610883
198 1 10.985 15.1998 4.01571 1.94273 -3.55847 -0.919896
199 1 9.13058 15.2441 6.17244 -1.48001 2.82779 1.41871
200 1 11.0104 13.1532 6.02869 1.86858 3.07486 -2.94532
201 1 13.1927 13.2854 4.1256 -3.10937 -3.75615 -1.48208
202 1 15.2531 15.3698 4.0349 -5.16218 -4.43296 -2.53298
203 1 12.9955 15.2785 6.21579 -1.19977 -7.66067 3.70811
204 1 14.9896 13.1469 6.22248 -0.443956 -1.93762 -0.532459
205 1 0.834816 13.2422 4.02196 -1.77799 -4.51385 2.8203
206 1 2.96657 15.1655 3.85595 1.86308 2.91509 1.14623
207 1 1.01627 15.0859 6.05341 -0.146814 1.92659 -2.44882
208 1 3.02195 13.2713 6.06324 -1.96946 -1.12266 3.89993
209 1 4.97724 0.984931 4.05534 -5.78496 -5.46005 1.74352
210 1 7.02943 3.08675 3.88851 -1.82418 1.70163 0.180718
211 1 5.01895 3.05229 6.16921 -2.11498 -0.797532 1.42072
212 1 6.99801 1.28884 6.17512 1.22201 -3.58349 -1.49875
213 1 9.06821 1.20453 4.02621 7.42604 -2.68722 0.756642
214 1 11.0838 3.11449 4.11531 3.34298 2.95586 3.304
215 1 9.09717 2.98305 6.08728 0.06615 0.788362 -5.28962
216 1 11.0837 1.0985 6.01213 1.18392 -0.594532 4.32753
217 1 13.2206 1.03633 3.94928 -1.02385 -6.30339 -3.86614
218 1 15.2234 3.05922 4.13356 -2.21078 -0.492346 -1.08707
219 1 13.1266 3.10669 6.12293 -0.873356 -2.42707 6.10963
220 1 15.0174 0.976726 6.16316 6.55126 0.267919 -4.12426
221 1 1.09851 0.996483 4.11103 4.9755 2.35526 -0.596641
222 1 2.9352 3.22473 4.01345 2.19292 2.7187 2.08749
223 1 0.983093 2.99876 6.12368 -3.09804 -2.05768 -3.40809
224 1 3.08017 0.962125 5.93192 -2.8461 -0.00584906 0.527015
225 1 4.98043 5.10508 4.09481 -4.75332 3.64986 -2.06976
226 1 6.96285 7.13154 4.18224 -0.946929 0.26076 -1.45736
227 1 5.01567 7.05617 6.16116 1.9045 -4.66631 -0.425034
228 1 7.00217 4.87758 6.01585 4.04042 -3.2674 -1.2019
229 1 8.97472 4.95064 3.97459 0.776403 -2.28267 -0.393356
230 1 11.1808 7.07821 4.1743 2.96373 -2.99458 -0.770891
231 1 8.96264 7.03664 6.01499 -0.174428 -1.46647 -1.89625
232 1 11.3135 5.06834 6.13547 2.08219 -4.4668 0.326693
233 1 13.1727 4.98115 4.03636 5.46477 -2.41096 -1.01737
234 1 15.1416 7.00721 3.92528 -2.7988 -2.48157 1.29488
235 1 13.3634 7.10839 6.03955 -2.98832 0.74359 -1.92534
236 1 15.1968 4.95079 6.07348 -0.566208 -2.88806 -0.316167
237 1 0.967859 5.03667 4.12325 -2.21491 -3.63014 7.10474
238 1 2.94282 7.11136 4.13211 -5.43326 -0.630768 3.61123
239 1 1.04935 7.08692 6.03286 -1.10405 2.90466 -0.349719
240 1 3.04888 4.9916 6.09042 -1.57993 -1.36255 -3.93296
241 1 4.99089 9.13005 4.13907 -0.607013 3.20863 -1.82821
242 1 7.01622 11.1652 4.02911 2.62763 0.39854 2.29281
243 1 5.11188 11.2102 5.96958 -0.729437 -0.899562 -2.67036
244 1 7.09967 9.26317 5.93923 -3.31303 -7.92458 0.128014
245 1 8.97444 9.11733 4.07463 0.555481 3.9581 -0.847067
246 1 11.0103 11.2449 4.13522 3.34634 -5.4199 -2.78963
247 1 9.0203 11.058 6.07471 1.43773 3.94656 -0.131141
248 1 11.1115 9.055 5.8701 -1.59837 2.10865 -3.63703
249 1 13.1528 9.18875 4.1927 8.14926 -2.54384 5.4077
250 1 15.1498 11.1834 4.07568 -1.64571 -0.365718 3.74236
251 1 13.0958 11.1475 6.16982 3.46579 -6.16212 0.129128
252 1 15.1956 9.17306 6.04064 1.25451 1.0379 2.58154
253 1 0.978449 9.19749 4.06159 5.64786 -3.61483 -4.14557
254 1 3.09803 11.2474 4.01333 -2.48397 -2.13859 -2.2976
255 1 1.007 11.2804 5.93912 3.62085 -1.40293 3.84337
256 1 3.05336 9.08322 6.02448 -1.76491 -3.61098 2.61378
