ITEM: TIMESTEP
40000000
ITEM: NUMBER OF ATOMS
256
ITEM: BOX BOUNDS pp pp pp
0.0000000000000000e+00 1.6184000000000001e+01
0.0000000000000000e+00 1.6184000000000001e+01
0.0000000000000000e+00 1.6184000000000001e+01
ITEM: ATOMS id type x y z vx vy vz
1 1 7.90094 14.83 5.83464 -1.76394 0.384818 -3.13609
2 1 9.74739 0.625164 5.84344 2.48733 -7.78597 -3.71266
3 1 7.89058 0.730196 7.88945 2.34417 -1.20301 8.1632
4 1 9.88551 14.9247 7.94583 -0.821253 -1.52915 4.2249
5 1 11.8228 14.7765 5.90223 -3.78036 -1.55283 1.91855
6 1 13.7871 0.72308 6.13405 -1.81385 -1.62993 -0.330429
7 1 12.0126 0.589597 7.99022 -3.89273 -3.26215 -5.49973
8 1 14.0328 14.7952 8.01744 1.27416 -3.6108 -1.98223
9 1 15.8873 14.9037 5.89548 -2.11527 -4.73729 -2.04399
10 1 1.78078 0.682178 5.91403 0.12786 3.69197 -3.08645
11 1 16.0153 0.668752 8.02543 -0.243109 6.36128 1.83257
12 1 1.70449 14.9434 7.84429 1.5677 -0.109625 3.16624
13 1 3.83093 14.7365 5.88798 -6.66113 0.777971 3.75928
14 1 5.90112 0.653403 5.77464 2.22263 -1.88705 -4.13485
15 1 3.75293 0.574744 7.99059 0.478103 0.411219 -0.057326
16 1 5.87284 14.9064 7.78418 -3.23378 -6.3954 0.790895
17 1 7.81743 2.80934 6.15553 -2.09227 2.40309 3.01612
18 1 9.76487 4.84032 5.95834 4.25716 6.49748 -2.84176
19 1 7.69879 4.93685 8.06149 -0.707243 1.29645 1.32314
20 1 9.7744 2.61126 7.87346 1.85184 -6.58022 -2.21381
21 1 11.753 2.5937 5.91152 -2.56551 -2.5848 -0.307905
22 1 13.9468 4.61514 5.95847 4.29037 -1.18397 -8.35783
23 1 11.8599 4.64302 7.85149 3.61814 4.36924 2.76536
24 1 13.9391 2.69848 7.87098 -1.28784 -1.69735 -9.26112
25 1 16.0574 2.69555 5.86203 -2.09498 2.70003 -3.22344
26 1 1.81747 4.74881 6.03227 1.41633 -1.25835 5.40451
27 1 15.798 4.77821 7.92583 -0.0894138 -0.0044821 -2.70255
28 1 1.88316 2.46304 7.9599 0.794419 -2.35001 3.81166
29 1 3.71249 2.64105 5.77575 4.83145 5.24096 -0.982022
30 1 5.74869 4.74877 5.9227 0.967491 2.20619 2.08397
31 1 3.79344 4.82857 8.04994 -1.24485 -1.54876 -3.07074
32 1 5.87434 2.68322 7.9392 1.58056 2.52502 -3.32075
33 1 7.96097 6.79564 5.90834 1.29717 -0.0299085 1.75171
34 1 9.88926 8.62314 5.95165 -0.673014 0.926555 -3.88646
35 1 7.8202 8.71982 7.89416 3.90907 -1.65607 1.40369
36 1 9.88327 6.76102 7.98003 1.33413 -6.10363 4.54696
37 1 11.9805 6.69468 5.9261 -0.30941 -1.9307 2.51719
38 1 13.9875 8.85131 5.90574 0.0797286 -0.336275 5.17987
39 1 11.8951 8.77135 7.91219 -1.47415 -1.38189 -4.09847
40 1 13.7699 6.82801 8.00478 -2.78569 5.30399 -3.34123
41 1 15.9211 6.78447 5.89233 -0.611245 0.926135 2.51564
42 1 1.75966 8.82918 5.80226 4.51895 2.56479 2.14887
43 1 16.0526 8.78372 7.96316 -7.12663 -1.22964 -1.84632
44 1 1.7489 6.8349 7.87625 2.0142 -1.86405 3.39657
45 1 3.61084 6.85902 5.91278 -1.13965 0.422483 -3.24812
46 1 5.76951 8.88431 5.85942 0.964697 -2.04183 0.207491
47 1 3.86768 8.80911 7.95654 -1.78618 0.796977 -5.0753
48 1 5.75445 6.85317 7.8315 2.03023 -4.11187 -0.26295
49 1 7.99898 10.7624 5.95699 -1.88432 -3.00069 -0.290737
50 1 10.0131 12.9077 5.92068 4.70258 -0.840867 -3.61713
51 1 7.93074 12.8283 7.88533 -0.656367 -0.0877356 -7.6891
52 1 9.94764 10.7315 7.95161 1.51227 4.27874 5.91323
53 1 11.8274 10.9178 5.92558 2.60473 -0.195801 -3.75395
54 1 13.9775 12.7689 5.99689 -2.06494 3.28598 -0.60878
55 1 11.7437 12.835 8.04249 0.472247 -2.73135 4.72078
56 1 13.8135 10.6746 8.01868 3.71361 -1.58854 -2.02983
57 1 15.9176 10.8488 5.95296 -4.54866 1.94004 2.09525
58 1 1.80067 12.8322 5.87896 -3.83123 2.92201 0.726744
59 1 16.0398 12.8414 7.90656 7.50581 3.7956 -4.8614
60 1 1.88767 10.799 7.92707 0.123929 -1.28558 1.96898
61 1 3.75901 10.7347 6.06077 -2.74559 -3.871 2.6492
62 1 5.92856 12.8646 5.8487 -1.55816 1.67148 -2.87934
63 1 3.87762 12.9666 7.79588 -2.85708 0.840767 -3.25828
64 1 5.92267 10.8969 7.92104 2.58898 2.11177 -0.319081
65 1 7.87925 14.7852 9.86906 -1.30857 -0.506443 -4.03018
66 1 9.87455 0.602998 10.0661 5.69155 -1.36359 -1.09843
67 1 7.85058 0.573287 12.1089 -0.808888 -1.8739 -7.74525
68 1 9.82978 14.8341 11.9111 1.63641 -6.98233 -3.57092
69 1 11.9851 14.9868 10.1478 -1.78306 1.62927 -0.1537
70 1 14.0534 0.766175 9.94843 0.0911513 -2.01376 -9.04329
71 1 11.8421 0.912816 12.0466 -0.660846 -4.54838 -0.384571
72 1 13.9352 14.9298 12.0371 -2.38562 -2.35929 -1.15718
73 1 16.0802 14.8267 9.97096 -2.04322 -1.93625 5.55002
74 1 1.92204 0.630878 9.97457 -4.1643 -4.30931 5.30768
75 1 16.1212 0.663561 12.057 -1.3089 5.99552 -6.31564
76 1 1.87631 14.7393 11.8824 0.314645 -0.901065 2.52882
77 1 3.96574 14.9079 9.98214 1.75248 1.79774 4.36307
78 1 5.85093 0.693728 9.94843 -2.11889 -1.14656 -2.66398
79 1 3.82014 0.771719 11.9914 0.0332178 2.77146 4.73371
80 1 5.9806 14.8419 11.8332 -5.41846 -0.0176139 -4.32561
81 1 7.88366 2.7937 9.99928 3.68212 -3.1721 -3.27465
82 1 9.83048 4.85429 9.81355 0.0196851 -4.55401 -1.72896
83 1 7.8691 4.77118 11.9237 0.904407 1.57645 3.3934
84 1 9.84246 2.76524 11.8174 0.63602 -0.0665964 3.91762
85 1 11.8409 2.93551 9.92537 -1.61703 2.42887 0.120649
86 1 13.9372 4.64484 9.90415 4.18631 -4.59936 -0.371565
87 1 11.8422 4.80272 11.8504 1.24439 1.00388 -0.487068
88 1 14.0126 2.72677 11.9614 0.22889 -4.16771 1.78281
89 1 16.1042 2.61709 10.0142 0.86439 -0.846344 3.20558
90 1 1.74271 4.6249 9.84113 6.0138 2.37732 -3.54909
91 1 16.0536 4.86559 11.8925 -4.23661 -7.8895 3.60697
92 1 1.76634 2.70496 11.9998 2.58624 -0.188567 -2.06876
93 1 3.83231 2.77619 9.97575 5.05708 -1.4357 1.91449
94 1 5.77028 4.73922 9.94397 -6.51763 -3.11805 -4.86268
95 1 3.70987 4.84583 11.8263 5.06158 -4.24017 0.562708
96 1 5.78711 2.75089 11.8822 0.510551 -0.327967 -2.84291
97 1 7.84875 6.8496 10.0512 -5.13694 -4.16822 -6.09598
98 1 9.8096 8.81979 9.98238 -4.56827 -2.08877 -0.15769
99 1 7.92455 8.72542 12.1319 -7.75565 5.95094 -2.96334
100 1 9.84199 6.75957 12.0578 2.61772 0.171064 -2.1455
101 1 11.9619 6.70442 9.99496 2.32408 -4.17082 4.9474
102 1 14.0484 8.80259 9.89345 -1.40187 -2.81729 -0.0101997
103 1 11.9349 8.72042 11.9646 5.12968 -1.5396 -2.84752
104 1 14.0997 6.8411 12.1005 5.23743 2.19318 2.20022
105 1 15.8575 6.68134 9.91731 3.48969 -1.30055 -0.974878
106 1 1.76361 8.89299 9.89619 1.70451 1.53817 2.35175
107 1 15.8815 8.89134 11.9829 -5.52153 -5.34227 -2.14298
108 1 1.73617 6.87051 11.8513 1.36429 2.1391 -4.5741
109 1 3.78688 6.88025 9.83265 5.2192 -8.1719 2.72882
110 1 5.91103 8.7816 9.97953 -0.633685 -0.921074 -2.4943
111 1 3.84528 8.62441 11.927 -4.91961 -2.76845 -0.780702
112 1 5.72028 6.69141 11.9185 -2.04715 -0.822891 0.339821
113 1 7.89532 10.778 9.85288 1.0318 -2.83252 -3.54689
114 1 9.79199 12.7427 10.0179 0.455163 -1.59695 -1.24755
115 1 7.6739 12.8197 12.0097 -0.705976 -5.46056 -3.67281
116 1 9.75505 10.7165 12.0664 5.20122 -3.52585 3.73495
117 1 11.639 10.7591 10.0443 0.408965 -1.13706 -1.66604
118 1 14.0307 12.6661 9.75877 -3.40142 -3.60758 -3.4612
119 1 11.943 12.8462 11.9124 -1.8886 0.356551 5.1566
120 1 13.9876 10.9194 12.0101 1.35319 -4.11148 -2.58781
121 1 16.043 10.8655 9.94847 1.62693 1.30992 -2.71321
122 1 1.9674 12.6459 10.0799 3.29144 1.60235 -2.31965
123 1 16.0105 12.8747 12.0398 4.89038 1.90089 3.07386
124 1 1.91197 10.667 12.0156 -2.64261 -1.53652 -3.63731
125 1 3.82955 10.7214 9.87931 1.62664 5.30656 -2.48232
126 1 5.7862 12.7103 10.0346 -2.13626 -2.75484 2.03784
127 1 4.06058 12.7893 11.8696 -0.636961 2.24385 -4.82938
128 1 5.78479 10.3963 11.9713 -1.25703 0.171415 0.43063
129 1 7.87128 14.746 14.027 -5.99375 1.32054 -1.54626
130 1 9.82818 0.779092 14.0335 2.81098 0.504258 -3.59397
131 1 7.82227 0.586713 16 1.11055 -0.464751 -2.03222
132 1 9.93196 14.8742 16.0444 0.77721 -6.14618 3.13904
133 1 11.8108 14.8406 13.8413 2.83994 -3.51537 -1.29118
134 1 13.7291 0.615723 14.136 3.12413 1.81357 0.446419
135 1 11.9259 0.566444 16.1144 -1.22555 0.454185 2.28636
136 1 13.8915 14.9455 16.0683 -1.82724 1.72767 -0.178132
137 1 15.9395 14.7951 13.9882 3.96516 3.34609 2.38283
138 1 1.64999 0.577061 13.9835 0.206503 -2.78154 2.71594
139 1 15.7837 0.834143 16.0063 1.08554 -2.07674 3.05093
140 1 1.86358 14.7946 15.9364 -0.411343 -1.09872 -0.363783
141 1 3.80859 14.7869 13.9355 -4.0002 1.30141 -3.46088
142 1 5.80271 0.473413 13.9079 -0.0520072 1.39491 -2.68008
143 1 3.63147 0.756934 15.7963 1.21561 -2.42878 -2.73032
144 1 5.70333 14.7065 16.0394 -0.334747 -2.30913 1.72946
145 1 7.65948 2.48038 13.9341 -0.925685 -2.48235 -2.59467
146 1 9.7987 4.37745 13.8612 -2.06659 0.335209 -3.14896
147 1 7.91154 4.71809 15.888 -1.95938 3.53489 -4.74783
148 1 9.86989 2.65281 16.0436 2.40883 3.55206 -1.56576
149 1 12.0251 2.7768 14.0629 0.5638 1.87936 -0.96136
150 1 14.1347 4.79112 13.8732 0.70058 0.935256 0.343328
151 1 11.9398 4.61765 16.0383 -1.33527 -5.94351 3.88308
152 1 13.9678 2.73646 16.0122 2.47075 -1.20607 -3.51184
153 1 16.0044 2.80948 14.037 0.202654 1.66866 3.16942
154 1 1.77621 4.70838 13.9293 3.19142 1.58012 -8.05305
155 1 15.9893 4.90257 16.004 1.0941 -4.82291 -0.74253
156 1 1.76763 2.70069 15.962 -0.297054 -0.791501 -5.72457
157 1 3.9415 2.74753 13.809 -4.03199 -0.636842 -4.099
158 1 5.9358 4.70531 13.9844 -6.23677 -7.56619 2.06267
159 1 3.73303 4.6331 15.7725 4.2971 -2.00342 -1.86855
160 1 5.76385 2.67599 15.991 3.55927 -2.49521 0.074998
161 1 7.76531 6.67439 14.0126 -3.5412 0.184151 -0.336957
162 1 9.87329 8.6263 14.0511 -1.88866 -8.76685 0.122771
163 1 7.81873 8.55879 15.9705 0.320423 -4.9209 0.746712
164 1 9.9475 6.61961 15.9668 -1.91767 1.51965 -3.2395
165 1 11.8066 6.59465 13.9029 2.5684 0.135009 1.91204
166 1 13.8421 8.84827 13.8458 0.819199 -3.70981 -5.75089
167 1 11.8249 8.81155 15.9613 0.0662449 -2.29999 -3.70894
168 1 13.8311 6.78921 16.0095 -1.68179 -1.19455 -2.06082
169 1 16.0362 6.78156 14.1006 1.81453 -5.20648 -1.05985
170 1 1.77609 8.75792 14.0529 -0.370972 -0.335676 -3.16802
171 1 15.8598 8.76765 15.9845 0.0644752 1.42941 1.21137
172 1 1.91147 6.84706 16.1347 -4.34096 2.30976 -3.57046
173 1 3.8248 6.84886 13.9967 -4.40793 -2.54431 -5.17453
174 1 5.85893 8.64839 14.0605 1.63106 -1.72358 0.467526
175 1 3.84784 8.67027 16.0384 -0.421172 -2.35543 -1.59641
176 1 5.77589 6.57376 16.0237 1.56608 2.25624 2.3975
177 1 7.89717 10.6428 14.0079 1.85862 0.422283 2.04219
178 1 9.89521 12.8309 13.7936 1.20445 3.46389 1.42481
179 1 7.77893 12.8205 16.0052 -1.69123 2.4266 -0.911755
180 1 10.1144 10.9089 16.0118 3.50644 -3.01012 1.25344
181 1 11.9186 10.826 13.9485 0.130474 -2.84637 5.30888
182 1 14.0273 12.848 14.026 1.0925 -0.22576 -5.0367
183 1 11.7281 12.9639 15.9364 -2.92279 0.764696 -0.676151
184 1 13.856 10.7282 15.9725 -3.61267 -1.07152 -4.10841
185 1 15.9226 10.6816 13.9213 -4.14185 1.37861 -3.48134
186 1 1.94347 12.7442 13.898 -1.2351 -4.69046 4.94419
187 1 16.1208 12.7392 15.8897 4.36431 2.59984 -2.65914
188 1 1.84268 10.7422 16.0538 -2.67829 3.18084 -1.18505
189 1 3.87065 10.7154 13.9687 -1.5227 3.58256 -1.64155
190 1 5.66308 12.6406 14.0332 0.646036 0.872986 1.00381
191 1 3.74239 12.6932 16.0242 -1.41725 0.62281 -4.43365
192 1 5.90214 10.5959 16.1338 -1.40628 8.43218 0.61146
193 1 7.78841 14.9392 1.8624 -0.234066 -1.79187 0.318606
194 1 9.94075 0.655298 1.98745 2.38065 6.59041 -1.10138
195 1 7.70328 0.596971 3.71564 2.78585 -3.22066 6.02953
196 1 9.7672 14.9208 3.95679 -0.365964 1.68385 2.52213
197 1 11.8931 14.767 1.86839 0.671301 -4.0343 2.25418
198 1 13.8729 0.597854 1.96874 -2.1948 -6.59888 0.64233
199 1 11.8056 0.771918 3.86566 -3.25524 -0.456805 -2.09628
200 1 13.8583 14.8506 4.144 2.91713 0.855776 -1.49529
201 1 15.9767 14.9737 1.83525 0.682343 -0.622248 1.87745
202 1 1.65251 0.706848 1.82992 -1.22263 -2.39549 0.0633151
203 1 15.9903 0.733475 3.94198 -2.47034 -1.41804 6.34921
204 1 1.69032 14.7944 3.79405 -0.752724 2.41116 -1.17256
205 1 3.80095 14.6487 1.93629 1.07013 -2.99005 -3.38531
206 1 5.69528 0.574889 1.77242 0.46335 0.399723 1.09768
207 1 3.82458 0.599116 3.83268 5.54385 -2.21786 2.59776
208 1 5.73429 14.8566 3.81555 -2.45298 -0.894634 0.0373499
209 1 7.62371 2.72325 1.73122 7.11949 -3.73121 -6.50813
210 1 9.74549 4.63806 1.87515 2.88805 1.33304 0.138769
211 1 7.69645 4.66224 3.85987 1.25828 2.08527 1.07523
212 1 9.76762 2.73056 3.73953 -0.112422 1.77543 3.74916
213 1 11.9684 2.75785 1.83961 -0.88196 2.48544 -5.42969
214 1 13.9716 4.79145 1.9943 -1.10507 -0.840042 1.15978
215 1 11.8006 4.6367 3.88422 -4.0621 -2.9544 -9.46875
216 1 13.8294 2.72701 3.84267 4.33628 -2.71718 -4.4282
217 1 16.0433 2.88448 1.99535 3.48411 -1.42155 -3.61004
218 1 1.93872 4.77542 2.00077 1.15028 1.0229 -0.526038
219 1 15.9601 4.78565 3.93923 2.2416 -3.10561 -0.735753
220 1 1.72821 2.75057 3.89056 4.09108 -0.530473 1.41324
221 1 3.78853 2.73949 1.72715 -0.747077 -0.291908 0.435801
222 1 5.69285 4.61359 1.80586 -0.322329 -3.03134 -3.04363
223 1 3.88034 4.7573 3.90588 7.19283 -1.86008 -0.740126
224 1 5.87982 2.65639 3.89238 -3.9962 -2.37045 -0.0723246
225 1 7.87048 6.74033 1.88232 2.59433 -2.99596 -2.10077
226 1 9.84899 8.63709 1.66971 3.39083 -2.45495 -3.16562
227 1 8.01552 8.61074 3.85404 -0.66013 -3.92067 -2.91209
228 1 9.92697 6.63398 3.86143 -1.70085 -1.24858 3.70773
229 1 11.9631 6.66872 1.83083 -5.69495 -3.60931 -1.78998
230 1 13.9898 8.8537 1.81525 1.06523 1.75359 0.658118
231 1 11.6853 8.88457 3.86745 2.93958 1.85409 1.51615
232 1 13.8491 6.6157 3.99568 1.68695 -1.01531 -1.4573
233 1 15.8705 6.7626 1.78189 -1.03615 -5.6034 -4.68896
234 1 1.67083 8.67315 1.89242 2.54303 -0.149273 1.66615
235 1 15.9214 8.95849 3.84987 2.07353 -0.952147 4.05727
236 1 1.75479 6.72645 3.88645 -1.62343 -2.19716 1.36369
237 1 3.79691 6.76389 1.84527 5.48783 -0.749924 4.56081
238 1 5.97235 8.69417 1.77003 1.44534 -6.69834 -0.501336
239 1 3.85941 8.89373 3.75984 -1.19628 2.41793 -1.67459
240 1 5.76104 6.78616 3.9355 1.61773 4.61664 0.0852326
241 1 7.75187 10.865 1.83739 -4.35309 0.883206 3.03195
242 1 9.94983 12.7558 1.91829 7.34207 -2.2945 2.45752
243 1 7.80503 12.9306 3.74314 -1.68392 -4.2075 -2.88689
244 1 9.84047 10.8153 3.8888 3.88199 -1.28252 -1.3181
245 1 11.9828 10.974 1.78347 -1.60931 2.85612 1.74075
246 1 14.1266 12.9746 1.88239 1.74287 0.819039 -1.20221
247 1 11.9399 12.836 3.96633 0.844229 2.7071 -0.7998
248 1 13.9677 10.9667 3.81502 2.3131 -3.37758 -1.02568
249 1 16.014 11.0043 1.7997 2.84529 -1.35387 -2.89776
250 1 1.78307 12.8085 1.82392 0.348851 4.13523 -0.604155
251 1 16.0418 12.7696 3.88929 0.816672 3.77362 -2.31524
252 1 1.84378 10.8015 3.7271 -4.70902 4.40697 5.15404
253 1 3.79974 10.7036 1.8323 2.78633 -3.06272 -0.665773
254 1 5.78902 12.785 1.69972 0.469039 6.76589 -1.94823
255 1 3.91239 12.7523 3.89574 2.15766 1.61632 -2.63538
256 1 5.91772 10.8292 3.8324 -0.15119 3.52908 -5.37832
