ITEM: TIMESTEP
18000000
ITEM: NUMBER OF ATOMS
256
ITEM: BOX BOUNDS pp pp pp
0.0000000000000000e+00 1.6184000000000001e+01
0.0000000000000000e+00 1.6184000000000001e+01
0.0000000000000000e+00 1.6184000000000001e+01
ITEM: ATOMS id type x y z vx vy vz
1 1 4.82529 7.4248 9.36297 -1.47016 -2.72389 -4.99861
2 1 6.78689 9.48687 9.46726 -1.3377 2.02025 -0.689305
3 1 4.71388 9.43608 11.4298 3.77402 -5.14219 -0.591955
4 1 6.99369 7.48821 11.2867 -1.04627 -0.0221991 -5.09554
5 1 8.9425 7.3143 9.42442 -1.0591 -1.88843 -6.21321
6 1 11.0712 9.43392 9.38915 4.26376 3.03002 -0.775407
7 1 8.88466 9.31506 11.4254 -0.989849 -2.8736 -3.78877
8 1 11.1006 7.58347 11.3944 2.50541 2.34529 -3.84812
9 1 13.0292 7.37063 9.35424 -4.50698 -5.70136 0.131853
10 1 14.9608 9.41564 9.1701 3.3178 0.795477 0.819491
11 1 13.2065 9.57736 11.308 -2.02751 -2.19589 3.32903
12 1 14.9824 7.47666 11.3264 -1.72789 1.32665 0.955062
13 1 0.849198 7.40494 9.29881 1.28717 0.653081 -4.04759
14 1 2.93463 9.48099 9.25204 -3.97982 -3.6807 3.19801
15 1 0.918318 9.48057 11.1653 3.36146 -8.48677 -2.28653
16 1 2.83059 7.45424 11.3775 0.860243 -5.9621 -5.12066
17 1 4.95019 11.5677 9.42953 4.18274 0.52313 0.986363
18 1 6.88933 13.5472 9.33392 0.863952 -4.03362 -2.1008
19 1 4.67563 13.5539 11.4108 -2.84358 -0.972595 0.890617
20 1 6.83429 11.4423 11.4539 6.79143 3.20642 -1.80375
21 1 8.96764 11.3161 9.38092 1.85321 -3.56294 -0.65774
22 1 10.9042 13.4234 9.5081 -0.376884 -2.54836 -0.294227
23 1 8.87398 13.4844 11.3329 -3.15092 2.90798 0.129196
24 1 10.954 11.3305 11.3898 1.84948 -7.48145 -1.8784
25 1 13.0397 11.4097 9.26238 -1.46898 -3.92015 0.897264
26 1 14.931 13.4738 9.27436 0.676059 -0.492393 -5.06574
27 1 12.9428 13.5158 11.2802 6.50509 -6.44473 3.63563
28 1 15.1445 11.4441 11.5147 0.74815 -2.72073 -1.28955
29 1 0.729026 11.5391 9.36093 -5.11816 -3.90978 -7.65078
30 1 2.85993 13.5 9.20975 -1.78097 0.445411 -1.26989
31 1 0.768812 13.574 11.3094 -0.192904 -3.2835 -4.68575
32 1 2.7764 11.5136 11.1664 4.58371 -4.62209 2.30371
33 1 4.80281 15.5455 9.17819 -3.56412 2.10674 -0.595494
34 1 6.97447 1.35206 9.2066 2.85298 -0.210657 2.52473
35 1 4.94807 1.34435 11.1359 -2.04532 -3.57334 0.64624
36 1 6.8928 15.4878 11.3538 0.0100268 -2.13502 -3.40249
37 1 8.91224 15.5359 9.34527 -3.00927 -0.206724 -3.40013
38 1 10.9197 1.31547 9.45322 5.93648 -0.262812 2.17319
39 1 8.77968 1.32201 11.3741 0.0522072 -6.84326 2.32379
40 1 10.986 15.4682 11.4202 -1.79202 1.506 -1.74669
41 1 12.9596 15.5395 9.29877 1.80646 -5.33958 -6.73842
42 1 14.9017 1.3186 9.43591 4.65066 -1.61801 1.82356
43 1 12.8337 1.48802 11.4905 -2.53987 -2.20512 1.37781
44 1 15.0127 15.526 11.2048 -4.41124 -5.07455 0.432345
45 1 0.788496 15.5147 9.34979 3.04248 -4.32498 -0.0527767
46 1 2.87145 1.25467 9.37004 -1.53851 0.3533 0.155881
47 1 0.740843 1.41519 11.3269 1.91469 -5.9627 -3.34345
48 1 2.90599 15.6187 11.376 1.64362 -2.61276 -1.33439
49 1 5.02306 3.36508 9.23293 0.603875 2.27193 -4.92798
50 1 6.94877 5.29337 9.2168 3.97773 -2.25922 1.06997
51 1 4.79028 5.34211 11.2224 -1.47143 -0.440484 -4.23289
52 1 6.87513 3.35601 11.35 0.811643 -3.24276 -2.83068
53 1 8.83504 3.29878 9.2095 -3.45096 0.264477 3.45569
54 1 10.9207 5.38044 9.2949 4.72585 5.61719 -1.23812
55 1 8.86294 5.27051 11.3397 -3.198 -0.730556 -0.0103037
56 1 11.0007 3.31413 11.3903 4.33969 -11.5758 3.54072
57 1 13.0289 3.384 9.38663 3.26901 -0.0712819 2.25077
58 1 15.1345 5.25476 9.15736 2.88496 -0.772426 1.78688
59 1 12.9192 5.49458 11.3988 3.22191 0.0354543 2.37417
60 1 14.916 3.4068 11.4294 4.65067 -3.75333 -2.54889
61 1 0.733415 3.22504 9.34488 -3.66181 1.79705 -1.63636
62 1 2.83522 5.36999 9.29943 -1.73712 -1.26919 -5.4943
63 1 0.635235 5.58746 11.3819 2.78342 5.50676 -3.01243
64 1 2.80094 3.45375 11.2662 0.225811 -7.43634 -1.92958
65 1 5.02256 7.31336 13.3304 -3.8806 0.400704 0.89465
66 1 6.81064 9.59006 13.3169 1.78273 -1.12254 -3.64917
67 1 4.94394 9.45804 15.2499 0.519056 2.29849 -7.15826
68 1 6.88153 7.44539 15.3333 -0.473298 -6.5681 -2.27511
69 1 8.86353 7.37506 13.2451 -2.11924 -0.552493 1.95064
70 1 10.9842 9.40992 13.3459 -4.66402 0.748451 -2.21104
71 1 8.90498 9.40877 15.3402 6.56604 -1.18491 -1.78404
72 1 10.9279 7.42887 15.2939 -1.73115 -1.65549 2.21939
73 1 12.9551 7.54877 13.3801 -3.00196 4.11098 -2.01755
74 1 15.1003 9.36364 13.4229 -0.390122 -2.38912 -1.07604
75 1 12.9855 9.39209 15.3261 -1.13837 3.12491 -0.0830521
76 1 15.0048 7.29523 15.4391 -2.04802 -8.21175 2.1947
77 1 0.899392 7.43567 13.4058 2.09332 -1.79834 -4.58175
78 1 2.87235 9.43143 13.3441 1.70864 -2.11177 -2.28393
79 1 0.810188 9.34952 15.3761 2.71739 -1.28363 -3.51103
80 1 2.90381 7.44204 15.4695 2.4934 -2.30743 2.01104
81 1 4.73651 11.5331 13.2571 0.554392 -1.41208 -3.25434
82 1 6.89695 13.5901 13.3879 4.16021 -4.25027 -1.24404
83 1 4.63211 13.4138 15.5538 2.64494 2.26785 -4.1845
84 1 6.86544 11.5448 15.3311 -0.331188 -3.0334 2.02505
85 1 8.8635 11.4669 13.1992 2.16624 0.00263931 -0.758797
86 1 10.9438 13.5417 13.3145 -3.54572 -1.11969 -1.00626
87 1 9.00866 13.5183 15.4311 0.737753 1.05349 2.93604
88 1 10.9316 11.4961 15.3251 3.09288 0.0182698 -1.07784
89 1 12.954 11.4039 13.2384 -1.4778 -0.832707 1.78208
90 1 15.0739 13.5003 13.2724 2.25722 -1.10299 3.49775
91 1 13.1055 13.4849 15.3396 -1.9723 -3.20744 -5.57018
92 1 14.8916 11.4113 15.3276 1.57753 -2.32122 -2.13428
93 1 0.953616 11.5252 13.3678 -1.9574 1.96403 -1.47574
94 1 2.78569 13.605 13.4532 2.89635 2.36628 -4.0562
95 1 1.04605 13.4616 15.5209 2.37515 -0.887987 2.24187
96 1 2.82016 11.3751 15.5069 -0.991802 1.16587 -2.41914
97 1 4.77587 15.5795 13.4377 1.98208 -0.145712 -3.16507
98 1 6.90064 1.16082 13.311 1.10297 1.44067 -1.3717
99 1 4.85212 1.48737 15.4066 0.783197 3.25545 -1.01979
100 1 6.87197 15.5388 15.4655 3.56303 0.832537 -0.0508885
101 1 8.91918 15.4547 13.5248 5.53863 0.88879 0.0877548
102 1 10.8896 1.28571 13.4614 1.53589 -4.20107 0.0391244
103 1 8.873 1.35947 15.4319 0.814223 -4.32759 -2.30038
104 1 11.0037 15.5244 15.4562 1.56205 -5.15233 -7.99717
105 1 13.0337 15.5228 13.3918 -2.45525 -1.25026 -0.436298
106 1 15.0985 1.29909 13.4621 1.21499 -0.336407 -0.736404
107 1 12.9935 1.23035 15.2923 4.57334 -3.68428 -3.65602
108 1 15.2836 15.4769 15.3246 5.51702 0.969802 -0.794466
109 1 0.922924 15.5996 13.292 0.878175 -0.192962 -0.350968
110 1 2.90261 1.49289 13.3936 -1.01436 1.99664 4.18349
111 1 0.972599 1.38056 15.4541 3.68337 2.93989 -1.96277
112 1 2.8499 15.6455 15.3688 -5.08714 0.285782 1.53974
113 1 4.87253 3.49707 13.364 0.512452 -3.48678 -4.98411
114 1 6.85654 5.26803 13.2494 -1.7112 -4.18275 -1.17236
115 1 4.90918 5.19783 15.4766 2.19177 -2.29037 0.111677
116 1 7.0256 3.32771 15.3753 -2.01609 0.323857 -3.90486
117 1 8.99882 3.39754 13.4532 3.39538 -3.96242 -2.71213
118 1 10.9129 5.29399 13.3094 1.48223 -1.25742 -1.69837
119 1 8.96995 5.32374 15.4147 -0.237752 0.536496 -5.52372
120 1 10.902 3.32284 15.4409 2.89835 -4.05898 -1.696
121 1 12.8471 3.38966 13.5164 -1.90486 -5.04725 -2.88586
122 1 14.9247 5.32385 13.3235 -3.79769 -2.66363 -4.17816
123 1 13.0288 5.23502 15.3208 -4.47762 -0.531482 -0.0755965
124 1 15.0455 3.38568 15.5022 1.17302 -1.90728 0.800365
125 1 0.779764 3.54757 13.4162 3.24301 2.31566 -0.0871682
126 1 2.86023 5.50762 13.5676 1.44819 -4.79517 0.440828
127 1 0.869411 5.44704 15.5764 2.05084 -2.95757 -1.46076
128 1 2.83862 3.43072 15.4021 2.31889 -7.2331 -5.44817
129 1 4.88057 7.3106 1.27938 1.20258 -4.08203 3.09011
130 1 6.79584 9.29931 1.29199 9.61859 -0.646276 -1.43681
131 1 4.94585 9.50456 3.23167 -0.4557 -1.44107 -1.44358
132 1 6.88775 7.26673 3.22406 -1.2726 -5.33421 -4.55101
133 1 8.92422 7.38218 1.16646 0.97831 -3.54809 -1.31812
134 1 11.0974 9.42999 1.125 -0.616941 -2.79925 1.22388
135 1 8.75717 9.50549 3.20584 -0.44679 -0.998786 -1.64325
136 1 10.922 7.36819 3.25579 -0.273109 -0.400332 -8.35836
137 1 13.0119 7.31728 1.21724 1.35493 -6.23169 -7.30584
138 1 15.0014 9.45723 1.26977 0.465381 0.863502 0.640418
139 1 12.9109 9.36902 3.15468 -0.865935 0.436271 -2.1668
140 1 15.006 7.40532 3.39212 -0.470261 -1.49839 -0.654427
141 1 0.828629 7.43877 1.40643 -3.5812 -1.45641 0.335628
142 1 2.86844 9.45196 1.15925 1.76027 1.2248 -1.59513
143 1 0.900312 9.44269 3.39317 2.57096 -1.3717 -5.52466
144 1 2.75834 7.50531 3.28375 2.19356 1.37201 -5.32295
145 1 5.02213 11.4805 1.18782 4.4549 0.391392 -0.751596
146 1 7.02704 13.3186 1.22812 -1.58332 -4.09141 -3.44944
147 1 5.08775 13.391 3.3044 1.94795 -2.69561 -11.4628
148 1 7.01572 11.4383 3.22149 -1.30522 0.328993 -0.0503519
149 1 9.06159 11.2996 1.03327 0.00572677 -2.95816 -0.00152935
150 1 11.052 13.4691 1.29133 3.8367 1.65767 -5.77516
151 1 8.90187 13.4524 3.28322 -1.40631 5.47188 -6.71113
152 1 10.9628 11.4342 3.24768 -2.03723 -2.09487 1.73919
153 1 13.0713 11.4522 1.24114 -1.82153 -0.554403 -2.64772
154 1 15.1486 13.4673 1.375 -0.838005 0.857535 -4.52022
155 1 12.9753 13.4012 3.26524 2.09255 -1.43984 1.73845
156 1 15.022 11.358 3.19268 2.11416 -3.3135 -5.18167
157 1 0.884068 11.3039 1.23057 2.70401 0.5761 -0.579778
158 1 2.9519 13.6415 1.35328 1.99714 -0.220768 0.0351499
159 1 0.929397 13.3346 3.35136 1.57747 1.03787 2.72649
160 1 2.89914 11.3712 3.14391 -0.41996 0.966745 -2.27195
161 1 4.99046 15.4223 1.39296 1.6441 -6.05854 0.332149
162 1 6.85671 1.17703 1.31015 -1.50194 -4.92345 -0.52918
163 1 4.94027 1.31359 3.29592 1.34973 -4.86607 -1.58987
164 1 6.92951 15.4536 3.32865 1.44028 -3.03173 -2.02804
165 1 8.96793 15.3981 1.17032 -3.2911 -3.63833 -0.172453
166 1 11.042 1.12629 1.17773 2.60451 0.96347 -4.17108
167 1 8.97648 1.14125 3.16322 -2.80744 -0.801025 -0.30129
168 1 10.9568 15.4195 3.2045 3.65969 0.418288 4.96381
169 1 13.2156 15.3151 1.2195 3.14102 1.94457 -3.233
170 1 15.0643 1.25359 1.15156 1.37728 -7.81401 -2.38233
171 1 12.9214 1.22422 3.21538 -3.76498 -2.98655 -5.60392
172 1 15.0427 15.4137 3.32524 -0.31643 0.238329 -4.14249
173 1 0.894369 15.5093 1.21984 -1.85442 -5.16132 -5.52679
174 1 2.87188 1.39283 1.25578 2.61451 0.366456 -4.60215
175 1 0.663495 1.54629 3.17938 2.39394 5.6894 -3.39377
176 1 2.72605 15.5116 3.25248 0.256885 -2.83938 0.436975
177 1 5.05383 3.3369 1.19604 -1.47312 -3.03531 2.91811
178 1 7.04688 5.26325 1.30635 -5.64721 -7.10011 -4.41668
179 1 4.81318 5.22743 3.15545 -0.0810023 4.19461 0.881084
180 1 6.99158 3.25679 3.33569 0.625022 -1.45391 -1.5272
181 1 8.98865 3.18015 1.23892 -1.51575 -0.935048 0.176085
182 1 11.0177 5.31912 1.26143 -4.95508 -1.36846 1.9727
183 1 8.99168 5.20125 3.18717 -0.82868 -2.1188 -1.57879
184 1 11.0017 3.16153 3.16786 -0.661867 0.984996 -4.09594
185 1 12.9791 3.24002 1.18781 -2.46868 2.46994 0.479252
186 1 15.0165 5.46508 1.24372 -0.308033 -3.36257 -3.35497
187 1 13.0205 5.41777 3.42919 -2.85187 -1.26592 1.79483
188 1 14.856 3.46674 3.227 -4.12385 -2.25316 0.412651
189 1 0.766812 3.38121 1.12718 1.18893 -0.556431 2.9346
190 1 2.93026 5.34128 1.13712 2.38854 -2.16401 0.702413
191 1 0.975675 5.3133 3.11892 2.68934 0.0869507 -1.77531
192 1 2.89728 3.29254 3.14441 -3.41803 -0.0665569 2.21715
193 1 5.00041 7.41287 5.22645 -1.32305 -2.78348 -2.87046
194 1 6.98624 9.38563 5.28173 -4.48506 -4.77946 -1.7908
195 1 4.82368 9.56648 7.05452 0.338473 1.48363 -2.3429
196 1 6.99626 7.44441 7.30221 -0.0776414 -1.07057 -8.8265
197 1 8.99536 7.43827 5.21061 -1.93586 -1.87046 1.93865
198 1 10.8178 9.4451 5.17155 6.22158 -1.29184 -0.624102
199 1 8.85893 9.51393 7.23551 9.6259 0.509681 -1.36321
200 1 10.8262 7.36558 7.19218 4.6885 -3.59559 -7.72399
201 1 12.9795 7.40861 5.37662 6.28123 -2.73992 -0.876787
202 1 15.0103 9.40408 5.45864 2.85107 3.57073 1.71273
203 1 12.9354 9.25065 7.3289 0.661311 -8.17775 -9.39396
204 1 15.1538 7.43225 7.30523 3.72894 -1.89171 0.967115
205 1 0.921947 7.26645 5.30949 1.49581 0.935424 0.965811
206 1 2.87787 9.42245 5.20332 -1.35152 -3.41551 -0.0655464
207 1 0.837325 9.5321 7.48745 3.52472 -2.60527 -2.63095
208 1 2.88773 7.31619 7.20263 1.56407 -1.18853 -1.48335
209 1 4.98918 11.4563 5.17021 -2.23721 -2.15394 2.52001
210 1 6.92249 13.5052 5.43225 5.27078 -1.51089 -2.15987
211 1 4.81889 13.5759 7.33036 -2.44219 -7.17005 -2.54159
212 1 6.82768 11.5019 7.35894 -3.2098 -2.30561 -2.55541
213 1 8.96903 11.5059 5.42806 -0.59892 3.37127 0.284105
214 1 10.9591 13.5388 5.16531 -3.49377 0.697135 -4.16699
215 1 8.97558 13.5006 7.40824 -3.30726 -3.3296 3.69539
216 1 11.0253 11.4815 7.27806 -0.318277 1.9576 -4.4873
217 1 12.9501 11.3243 5.10922 -1.65725 -6.14669 -2.9018
218 1 14.9962 13.3317 5.3079 0.271482 -3.12339 -3.52996
219 1 12.9375 13.4011 7.38835 0.976684 2.35567 1.10744
220 1 14.9183 11.4003 7.20102 1.15584 -1.46924 4.02344
221 1 0.849394 11.4958 5.16045 0.152286 -2.19037 -1.09421
222 1 3.02223 13.3966 5.16925 3.62458 4.01567 -1.95695
223 1 0.884167 13.43 7.19835 1.93785 -4.31411 -0.459443
224 1 2.94711 11.5082 7.27271 -2.15427 0.61956 -0.910412
225 1 5.00747 15.5013 5.29665 -1.72842 -1.42758 -3.44622
226 1 7.02927 1.36833 5.23987 4.16698 -2.70816 2.70896
227 1 4.92382 1.3181 7.26684 -3.00205 -4.24587 -7.12449
228 1 6.94289 15.4457 7.36975 0.473372 1.30158 -7.11479
229 1 9.0468 15.4392 5.28082 2.01025 -4.14773 0.324534
230 1 11.11 1.22751 5.21023 2.41107 2.04189 -1.75759
231 1 8.95594 1.18528 7.25407 3.64441 -5.87447 -2.15126
232 1 10.7482 15.4205 7.36601 0.867836 -3.34701 -0.475503
233 1 12.9409 15.3393 5.33255 1.69252 -3.71186 -3.88844
234 1 14.8834 1.11281 5.25515 -4.53118 0.274557 0.791195
235 1 12.9869 1.16072 7.39557 7.54796 -0.746763 -4.83717
236 1 15.0135 15.4283 7.20759 0.0501778 3.59862 -3.00516
237 1 0.774494 15.5586 5.3259 0.311932 -0.135485 -5.56148
238 1 2.83737 1.25648 5.20377 0.293626 2.03543 1.09721
239 1 0.797626 1.24454 7.21611 1.87987 -4.89096 1.57671
240 1 2.83502 15.6012 7.17782 2.02719 1.74465 1.83182
241 1 4.85378 3.42628 5.32979 6.73153 -4.89429 -1.35674
242 1 7.02033 5.24795 5.15517 -1.97543 1.68896 1.64486
243 1 4.90178 5.38587 7.32633 -3.88524 -1.39494 -1.76823
244 1 6.96173 3.45857 7.15412 0.0978164 -1.42821 0.110586
245 1 9.21155 3.31977 5.2835 -0.811606 -5.47587 -3.23906
246 1 10.9959 5.39943 5.26427 0.410241 -5.24455 -4.64004
247 1 9.00924 5.44169 7.3328 -2.80619 -0.737192 -4.92254
248 1 10.9918 3.20821 7.34477 1.44776 0.337708 0.753982
249 1 12.9761 3.2014 5.22879 0.294557 -3.55403 -1.06738
250 1 14.9365 5.33043 5.34535 -2.74281 -2.36805 -4.61865
251 1 12.9124 5.42272 7.28358 0.48902 2.90745 -2.64061
252 1 15.1044 3.21881 7.27952 -3.73215 -0.854147 4.65395
253 1 0.790477 3.3047 5.22298 -2.0244 0.508011 -5.99023
254 1 2.85831 5.26342 5.09289 1.83031 -0.47872 1.6718
255 1 0.975974 5.25348 7.36324 -2.6484 -2.45096 -2.08017
256 1 2.7563 3.25917 7.30039 -2.53502 -0.371338 -1.19844
