ITEM: TIMESTEP
8000000
ITEM: NUMBER OF ATOMS
256
ITEM: BOX BOUNDS pp pp pp
0.0000000000000000e+00 1.6184000000000001e+01
0.0000000000000000e+00 1.6184000000000001e+01
0.0000000000000000e+00 1.6184000000000001e+01
ITEM: ATOMS id type x y z vx vy vz
1 1 10.1157 10.9932 7.7885 2.03022 -4.25467 -2.65212
2 1 12.1522 13.0216 7.86842 2.12662 -3.13108 -3.95835
3 1 10.1406 13.0292 9.82232 1.26362 -4.71877 -5.59346
4 1 12.2364 11.0191 9.85002 1.45272 -5.82319 -4.69214
5 1 14.2765 10.9961 7.78616 1.00229 -3.86521 -0.731564
6 1 0.0794567 13.049 7.79034 1.2115 -4.21154 -2.74701
7 1 14.2227 13.0096 9.84699 1.77977 -5.09652 -3.75161
8 1 16.2205 10.9768 9.82201 4.34591 -4.68765 -2.48175
9 1 2.02876 11.0158 7.77298 1.17225 -3.9561 -2.66109
10 1 4.10839 12.9927 7.78494 2.0002 -2.82647 -2.43677
11 1 2.07455 12.9704 9.84232 0.264277 -1.3596 -2.59657
12 1 4.06082 11.0035 9.83678 0.352174 -0.0151086 -2.48385
13 1 6.15136 10.9754 7.79387 1.82295 -2.4982 -1.51297
14 1 8.10803 13.0543 7.79219 1.65302 -3.22017 -3.61827
15 1 6.06873 13.0066 9.77813 0.175684 -2.1835 -2.49894
16 1 8.18137 10.9602 9.82514 1.75038 -4.49029 -2.21644
17 1 10.0894 15.0432 7.75381 -0.308693 -3.60411 -1.71616
18 1 12.1182 0.922966 7.7317 -0.0604337 -2.36965 -4.95615
19 1 10.1398 0.902315 9.85107 0.213909 -4.76222 -2.75821
20 1 12.1102 15.0714 9.82695 1.18018 -2.60813 -6.06303
21 1 14.1921 15.0257 7.79897 1.56244 -1.42347 -3.18853
22 1 16.139 0.899481 7.73799 -0.487672 -3.22638 -3.68237
23 1 14.1532 0.836293 9.7614 -1.04219 -3.28332 -3.47144
24 1 0.0551816 15.0663 9.78143 -0.0781754 -4.88314 -5.08228
25 1 2.06213 15.0487 7.82909 0.994388 -1.45216 -2.63818
26 1 4.03926 0.944787 7.83531 -0.0357085 -4.42064 -3.5885
27 1 2.02925 0.898052 9.80485 1.42015 -3.77278 -3.46551
28 1 4.08688 15.0565 9.82369 0.875787 -1.74359 -4.26755
29 1 6.12502 15.0318 7.84052 1.53642 -3.57673 -3.61513
30 1 8.15523 0.905167 7.78985 1.54651 -3.51992 -2.82082
31 1 6.06622 0.887559 9.8864 -0.136917 -2.13095 -1.99184
32 1 8.16265 15.0032 9.777 -1.50684 -4.66192 -1.13448
33 1 10.1439 2.93983 7.83863 0.220682 -3.49963 -2.46723
34 1 12.2076 4.92853 7.81729 -0.75375 -3.03516 -4.84232
35 1 10.1127 4.93934 9.85371 0.0404111 -3.66701 -3.07654
36 1 12.1774 2.87775 9.80704 -1.42669 -4.40833 -2.49222
37 1 14.2477 2.87096 7.77134 -0.0136336 -3.47283 -3.46876
38 1 0.077767 4.89401 7.79938 -1.19911 -4.54252 -3.18097
39 1 14.2242 4.92084 9.81093 0.460522 -1.88571 -3.18289
40 1 0.100736 2.87884 9.83934 -0.849147 -3.79089 -4.23762
41 1 2.01549 2.87193 7.70977 0.153056 -2.97327 -3.43767
42 1 4.11429 4.90522 7.79101 -0.525628 -2.61228 -5.08115
43 1 2.08622 4.90401 9.79729 1.81597 -1.67477 -3.90532
44 1 4.0732 2.93586 9.85438 3.30876 -2.31216 -5.05243
45 1 6.1548 2.83315 7.84137 1.35813 -3.4557 -4.57995
46 1 8.10705 4.91277 7.7839 1.25078 -3.18996 -4.35629
47 1 6.1719 4.955 9.75458 0.624291 -3.37472 -4.10761
48 1 8.15139 2.87934 9.92658 1.04429 -3.10333 -2.57234
49 1 10.1996 6.9611 7.76705 3.64763 -1.87059 -3.40355
50 1 12.2356 9.01412 7.84747 0.67752 -2.96219 -0.910106
51 1 10.2149 8.97296 9.83414 0.942714 -2.61177 -3.41605
52 1 12.1876 6.90108 9.86366 1.94043 -4.43652 -3.74853
53 1 14.2607 7.0053 7.81067 1.79858 1.16662 -4.70069
54 1 0.0621444 8.98109 7.76776 0.440016 -5.27255 -3.18785
55 1 14.2061 8.95429 9.87441 1.16419 -2.70788 0.152439
56 1 0.0795635 6.9372 9.84065 -0.997747 -3.39869 -3.26621
57 1 2.03646 6.95268 7.79803 1.4636 -3.00425 -4.06631
58 1 4.15298 8.95371 7.75908 -1.97859 -2.33206 -3.12827
59 1 2.07216 9.01464 9.73428 -1.39634 -2.12063 -3.90928
60 1 4.08545 7.02372 9.81074 -0.495646 -1.67883 -2.39418
61 1 6.07736 6.99361 7.76091 0.632971 -2.65449 -4.10402
62 1 8.18279 8.99802 7.79175 2.78539 -3.88416 -2.86497
63 1 6.14177 9.02097 9.82062 0.492084 -3.56708 -3.22252
64 1 8.17952 6.9591 9.81994 1.55873 -2.92962 -3.17311
65 1 10.1957 11.0635 11.8329 1.39055 -6.70745 -4.89696
66 1 12.141 13.0467 11.913 0.471781 -5.59296 -2.63508
67 1 10.0697 13.0368 13.9219 2.57644 -2.74106 -2.03076
68 1 12.2338 10.9719 13.8761 0.13778 -1.48005 -5.53984
69 1 14.2244 11.0324 11.8921 0.882964 -3.90375 -3.73466
70 1 0.0669409 12.9739 11.839 -0.48607 -2.19162 -3.41113
71 1 14.1115 13.0651 13.9092 0.633018 -5.40897 -1.027
72 1 0.0771286 11.0324 13.8692 2.22494 -2.42196 -3.97526
73 1 2.05292 10.9876 11.879 -0.763998 -3.14911 -4.40605
74 1 3.98908 13.0456 11.7924 1.74068 -2.41875 -2.1292
75 1 2.03873 13.098 13.9042 0.516352 -5.42931 -3.92881
76 1 4.04546 10.9629 13.8905 0.160756 -2.36909 -3.64414
77 1 6.03654 11.0415 11.8187 1.2875 -3.26045 -4.5801
78 1 8.07534 12.9764 11.8205 0.629997 -4.38356 -2.16835
79 1 5.97245 13.0327 13.7983 0.807442 -3.34136 -3.76542
80 1 8.09363 11.0413 13.8617 1.56567 -3.91211 -3.28419
81 1 10.0729 15.0127 11.78 1.08818 -2.4295 -2.82857
82 1 12.1512 0.886472 11.8535 0.224862 -3.65531 -3.21686
83 1 10.1525 0.789548 13.9038 2.57346 -2.89201 -2.72789
84 1 12.1153 15.0494 13.8506 1.77236 -2.3117 -1.75226
85 1 14.1857 14.9142 11.8041 0.818773 -4.27222 -3.13378
86 1 0.0115864 0.780177 11.7977 0.478869 -2.73442 -5.19538
87 1 14.2373 0.801445 13.7999 0.253124 -3.77156 -5.9662
88 1 16.1683 14.9901 13.8081 3.40908 -1.69015 -6.70506
89 1 2.03782 15.0302 11.8063 -0.32365 -5.87781 -2.75603
90 1 3.99531 0.898414 11.8265 1.51767 -2.78605 -2.52327
91 1 2.08466 0.884011 13.8496 1.89082 -2.6677 -4.28877
92 1 4.04505 15.1059 13.8233 -0.665391 -3.53644 -3.95359
93 1 6.10498 15.0543 11.8139 0.541824 -4.35278 -2.11914
94 1 8.13898 0.810451 11.9169 2.41366 -2.74601 -3.73417
95 1 6.11188 0.873936 13.8634 1.73046 -3.31077 -2.56561
96 1 8.07323 15.0088 13.8314 1.81649 -4.89878 -3.82639
97 1 10.1924 2.89193 11.916 3.28007 -2.79582 -3.50344
98 1 12.2098 4.90252 11.8494 -1.47248 -3.50871 -0.343345
99 1 10.1427 4.93946 13.8934 1.67413 -6.22216 -2.75431
100 1 12.2441 2.87059 13.9129 -0.712408 -5.68909 -5.78826
101 1 14.281 2.86667 11.8453 0.398407 -4.28332 -4.46893
102 1 0.08213 4.87394 11.8356 -1.03024 -4.23087 -5.50473
103 1 14.3127 4.87619 13.857 2.97143 -2.18826 -3.1073
104 1 0.0615986 2.89118 13.8693 1.8033 -1.87659 -4.53544
105 1 2.05423 2.84251 11.8555 0.0300235 -3.45215 -3.94064
106 1 4.18184 4.91167 11.8209 2.30492 -4.4706 -5.19895
107 1 2.11643 4.83784 13.8854 -0.67962 -3.23829 -2.17208
108 1 4.14462 2.83859 13.8871 2.05108 -0.876025 -1.885
109 1 6.1398 2.87225 11.8421 1.72794 -2.67256 -3.75614
110 1 8.1249 4.95632 11.8634 0.893154 -3.87017 -5.48318
111 1 6.10533 4.9449 13.8566 0.969942 -2.96318 -5.30573
112 1 8.14849 2.83442 13.8456 1.20276 -4.54568 -3.40363
113 1 10.1567 6.96165 11.8828 0.401509 -4.46565 -4.10405
114 1 12.2542 8.9942 11.9092 0.195917 -1.93127 -1.15245
115 1 10.1865 8.96993 13.8157 1.22757 -2.54134 -3.99649
116 1 12.2582 6.87764 13.8578 0.659411 -2.5722 -1.09767
117 1 14.2048 6.95227 11.8933 2.36693 -1.79115 -3.92129
118 1 0.0405814 9.00602 11.8722 0.861759 -2.55122 -2.2203
119 1 14.2642 8.96809 13.8892 0.700063 -2.04081 -4.00751
120 1 0.0838967 6.96693 13.8669 0.0335675 -2.67584 -4.91547
121 1 2.06104 6.86745 11.8551 2.43599 -3.45122 -4.20131
122 1 4.02011 8.9971 11.8223 1.57688 -3.04353 -3.33534
123 1 2.0589 8.96366 13.8967 2.95868 -0.673926 -4.08546
124 1 4.09011 6.92895 13.8278 1.92549 -1.35688 -3.21933
125 1 6.13418 7.01604 11.8032 1.24172 -1.9116 -3.5079
126 1 8.20034 9.03437 11.87 -0.275423 -4.17786 -4.40474
127 1 6.15064 8.99021 13.7777 2.092 -3.05883 -3.49523
128 1 8.10978 6.97802 13.834 2.61545 -5.63362 -2.81425
129 1 10.1316 10.9451 15.8475 2.85937 -0.866285 -2.30446
130 1 12.1097 13.0385 15.8945 0.663499 -5.56884 -2.42551
131 1 10.1119 13.0784 1.72795 2.53626 -2.06428 -4.87761
132 1 12.1915 11.0003 1.7145 2.85813 -1.67857 -2.92777
133 1 14.2421 11.0459 15.9106 -0.129888 -4.93384 -3.20353
134 1 0.0487153 12.9695 15.8814 1.81476 -4.483 -4.41563
135 1 14.1449 13.0819 1.73043 0.409038 -3.48968 -3.26635
136 1 0.0296712 11.0021 1.69901 2.45111 -0.42698 -3.45906
137 1 2.02641 11.0158 15.8554 2.32935 -1.18196 -3.68626
138 1 4.07448 12.9633 15.8401 -0.16286 -3.1896 -1.99214
139 1 2.11477 12.9674 1.73698 0.580165 -3.57255 -1.83201
140 1 4.14921 10.9654 1.6797 1.25026 -3.80991 -1.1859
141 1 6.11248 11.0303 15.8184 2.81478 -4.1858 -3.24658
142 1 8.05596 13.062 15.8621 -0.940329 -2.5611 -0.921766
143 1 6.07164 13.0059 1.66476 1.23247 -3.70342 -3.35701
144 1 8.10106 10.9856 1.65914 0.679091 -3.31 -3.79809
145 1 10.1059 15.0649 15.9233 1.62516 -4.56475 -2.20434
146 1 12.2513 0.83449 15.9076 -0.519342 -1.71152 -3.48563
147 1 10.1845 0.867146 1.76275 -0.364714 -4.614 -3.50634
148 1 12.133 15.0787 1.6927 4.31146 -2.12909 -4.04899
149 1 14.2292 15.0445 15.8505 2.63655 -4.52792 -2.39853
150 1 0.107782 0.854174 15.8553 1.24035 -3.87281 -5.18653
151 1 14.2456 0.827519 1.68105 1.6745 -3.2962 -3.71588
152 1 0.0174609 14.9957 1.66819 0.0817738 -1.739 -5.1049
153 1 2.06717 15.026 15.9258 2.00316 -4.06383 -3.75473
154 1 4.12877 0.904703 15.8938 0.574667 -3.75353 -1.67974
155 1 2.10432 0.907305 1.74004 1.81739 -3.14959 -3.08815
156 1 4.12496 15.0492 1.67486 1.22276 -3.55754 -1.1959
157 1 6.15759 15.0939 15.899 0.890085 -2.93 -4.44647
158 1 8.15256 0.84569 15.9691 -0.787642 -6.60352 -1.91124
159 1 6.14171 0.863985 1.79049 1.42013 -4.65468 -4.32487
160 1 8.09262 15.0338 1.76557 2.42614 -2.09262 -2.87763
161 1 10.1697 2.86537 15.8656 2.0221 -5.45585 -2.59724
162 1 12.2003 4.86041 15.9023 0.948256 -4.62309 -0.836591
163 1 10.1655 4.91868 1.68171 2.18076 -3.75074 -2.69674
164 1 12.2181 2.89919 1.73312 2.76547 -3.52137 -2.51624
165 1 14.2546 2.8863 15.8671 0.818508 -4.98754 -3.57819
166 1 0.14178 4.89231 15.8926 -0.821088 -2.26909 -3.07503
167 1 14.168 5.0136 1.72579 2.10999 -4.56784 -2.66518
168 1 0.0372146 2.94152 1.78756 0.672163 -3.68816 -4.20758
169 1 2.10812 2.83122 15.9278 1.30278 -2.30092 -4.82735
170 1 4.15739 4.92261 15.8859 -1.0393 -3.73543 -3.87872
171 1 2.14893 4.91265 1.6736 2.71356 -1.80564 -4.65101
172 1 4.15019 2.8869 1.70223 -0.191682 -1.77772 -3.53571
173 1 6.13959 2.89095 15.8416 3.13181 -2.39469 -5.40417
174 1 8.14798 4.90427 15.8445 3.41749 -2.31584 -6.03683
175 1 6.24009 4.94333 1.678 -1.43773 -3.97122 -2.5874
176 1 8.15613 2.90194 1.75589 -0.0712152 -2.85666 -3.85434
177 1 10.188 6.94789 15.8077 -0.588959 -3.10841 -0.107662
178 1 12.2101 8.949 15.8131 1.46207 -4.31433 -2.1346
179 1 10.1858 8.97214 1.68513 -0.14692 -3.73384 -4.94797
180 1 12.2048 6.94637 1.72847 3.0664 -4.70921 -4.9757
181 1 14.2047 6.91709 15.8926 -0.118699 -2.22262 -1.56818
182 1 16.2069 8.94214 15.9305 2.67163 -1.50057 -4.50935
183 1 14.1705 9.01134 1.72932 1.90962 -6.49386 -5.02193
184 1 0.0504372 7.00255 1.7169 1.24599 -3.71415 -4.01481
185 1 2.08559 6.90078 15.8729 1.24158 -4.22885 -5.37606
186 1 4.13086 8.94664 15.8943 1.76938 -2.92877 -2.19678
187 1 2.11205 8.95576 1.68443 1.56787 -4.37058 -3.95777
188 1 4.19836 6.9242 1.65782 0.556588 -3.54939 -4.07767
189 1 6.173 6.94242 15.8309 1.50352 -3.41387 -3.1626
190 1 8.13086 8.99948 15.845 1.01328 -3.25558 -5.45365
191 1 6.16781 8.92513 1.73552 -0.266212 -1.80393 -2.30022
192 1 8.25505 6.92289 1.66454 0.124584 -4.47388 -1.40078
193 1 10.1889 11.0975 3.7014 -1.0427 -4.56734 -2.62814
194 1 12.2119 13.0497 3.79309 2.36285 -4.5174 -3.19893
195 1 10.2053 13.0517 5.81153 1.77163 -3.38709 -2.79099
196 1 12.1978 11.0633 5.79224 0.0714187 -4.59406 -3.5185
197 1 14.2841 11.0433 3.7477 1.54599 -4.35373 -5.00923
198 1 0.0171567 13.1069 3.7428 0.80748 -5.11432 -4.66546
199 1 14.2036 13.0397 5.82506 3.11565 -5.52905 -4.24809
200 1 0.0794685 10.9851 5.74396 0.779075 -4.16277 -3.67071
201 1 2.08638 11.0387 3.68696 0.00585698 -3.4394 -2.95031
202 1 4.05266 12.9794 3.75075 -1.80493 -3.67361 -2.88519
203 1 2.05677 13.0851 5.78608 2.01829 -2.5986 -4.64122
204 1 4.08214 10.9736 5.76322 0.551637 -1.93798 -2.85086
205 1 6.097 10.9893 3.68145 3.26532 -1.07429 -2.30971
206 1 8.08972 13.019 3.75201 1.64957 -2.96634 -3.36056
207 1 6.06 12.9155 5.75138 3.15158 -3.25911 -1.95131
208 1 8.10416 11.0292 5.6396 0.302749 -6.4884 -0.840378
209 1 10.109 15.064 3.80116 -0.710067 -4.10946 -4.86018
210 1 12.1928 0.864803 3.73376 -0.562229 -3.69709 -3.16605
211 1 10.178 0.884927 5.80927 1.62564 -2.44599 -1.81194
212 1 12.2165 15.1211 5.80096 1.03338 -4.24633 -3.6171
213 1 14.1407 15.055 3.70759 1.75225 -2.70977 -4.45463
214 1 0.0482484 0.871902 3.7015 2.18221 -3.08207 -1.96928
215 1 14.2558 0.873883 5.74232 1.07623 -3.5628 -2.78894
216 1 16.1668 15.0335 5.71511 1.02 -3.38238 -0.658316
217 1 2.06938 15.0524 3.7501 2.29348 -2.31837 -3.68093
218 1 4.11223 0.921121 3.71177 1.81912 -2.87766 -6.33094
219 1 2.02123 0.825097 5.74855 2.20828 -2.42731 -2.58064
220 1 4.0483 15.0448 5.8021 0.969188 -4.92243 -3.55681
221 1 6.015 14.9953 3.7747 0.438174 -3.37823 -5.00902
222 1 8.16953 0.865097 3.81073 -0.497711 -4.58858 -4.1761
223 1 6.07837 0.818375 5.80927 1.16915 -2.94028 -3.67383
224 1 8.04388 15.0429 5.74335 2.0124 -4.56059 -2.62101
225 1 10.1944 2.89383 3.80822 0.0828693 -2.73249 -3.72181
226 1 12.2318 4.88388 3.7895 -0.166491 -3.06924 -2.19873
227 1 10.2081 4.96358 5.78017 -1.36723 -3.53312 -1.24237
228 1 12.2082 2.85877 5.72315 1.58449 -4.7733 -3.51604
229 1 14.2547 2.93246 3.72055 1.71089 -3.3907 -3.88476
230 1 0.0825472 4.93076 3.72239 2.40492 -5.05669 -4.59467
231 1 14.2532 4.90176 5.84127 0.890485 -3.77943 -3.73378
232 1 0.109057 2.88422 5.72954 1.27799 -3.43595 -3.51224
233 1 2.07484 2.95847 3.7628 3.67108 -4.27137 -2.96741
234 1 4.14062 4.91482 3.70716 2.47667 -3.81055 -4.28291
235 1 2.17589 4.93441 5.79092 0.195509 -3.45751 -4.21304
236 1 4.07958 2.86618 5.77229 3.9243 -3.44302 -0.383054
237 1 6.12753 2.95373 3.78871 0.887211 -3.53078 -3.38908
238 1 8.20698 4.91035 3.78697 1.12658 -5.9045 -4.52294
239 1 6.12972 4.90828 5.80532 1.00501 -2.71546 -5.47351
240 1 8.10721 2.86238 5.82408 3.29891 -4.07396 -3.64377
241 1 10.2683 6.98503 3.78112 -0.0297451 -3.79262 -3.50485
242 1 12.247 8.98407 3.80233 1.01411 -4.46614 -3.94857
243 1 10.2088 9.04735 5.80272 0.961354 -2.683 -3.48803
244 1 12.255 6.96919 5.78415 3.36453 -3.97714 -3.62391
245 1 14.3242 7.03284 3.82119 2.49273 -4.4693 -2.70625
246 1 0.0690662 8.98415 3.78164 0.428291 -2.50489 -4.29669
247 1 14.2861 9.02037 5.78126 0.451861 -2.68866 -5.07786
248 1 0.139404 6.90544 5.77685 0.58586 -1.81532 -2.21965
249 1 2.17712 6.95997 3.68298 3.89281 -2.22039 -3.03357
250 1 4.13288 8.96117 3.64396 1.89246 -5.76251 -3.08724
251 1 2.12529 9.01373 5.73008 0.780607 -4.80438 -3.25548
252 1 4.19086 6.95173 5.74224 1.26661 -2.38226 -3.43962
253 1 6.23051 6.87878 3.74329 0.834226 -3.72552 -4.39095
254 1 8.20342 8.95525 3.75602 0.562859 -4.83479 -4.85466
255 1 6.14057 8.96076 5.70471 2.80983 -3.90627 -3.73005
256 1 8.23551 6.92136 5.79402 1.08465 -2.71026 -4.43623
