ITEM: TIMESTEP
6000000
ITEM: NUMBER OF ATOMS
256
ITEM: BOX BOUNDS pp pp pp
0.0000000000000000e+00 1.6184000000000001e+01
0.0000000000000000e+00 1.6184000000000001e+01
0.0000000000000000e+00 1.6184000000000001e+01
ITEM: ATOMS id type x y z vx vy vz
1 1 2.62553 10.7379 0.013125 1.05883 -3.19227 -3.38765
2 1 4.67091 12.739 0.0394593 1.46033 -3.5865 -3.79533
3 1 2.63964 12.802 2.05092 1.7711 -3.35841 -3.61697
4 1 4.63791 10.7449 2.05791 1.88751 -2.91314 -3.68283
5 1 6.6666 10.7291 0.0180436 1.10711 -2.85988 -4.15104
6 1 8.70843 12.7378 -0.000324229 1.34107 -3.46241 -4.40083
7 1 6.69337 12.7641 2.07604 1.82229 -3.7031 -3.83465
8 1 8.67614 10.7361 2.04747 1.80344 -3.3218 -4.54199
9 1 10.7101 10.734 16.1685 1.67964 -3.11699 -3.91531
10 1 12.7596 12.7249 0.00398893 1.62592 -3.47342 -3.79481
11 1 10.7124 12.763 2.04141 1.81072 -3.26979 -4.18349
12 1 12.7232 10.7475 2.04347 1.40927 -3.13472 -3.72928
13 1 14.7785 10.7615 0.000586184 1.50592 -2.78804 -3.62071
14 1 0.623954 12.7623 0.00742772 1.41251 -2.91595 -3.77813
15 1 14.7747 12.7785 2.03515 1.62941 -3.04499 -3.1164
16 1 0.613015 10.7804 2.03567 1.56486 -3.26541 -3.88214
17 1 2.65084 14.7615 0.0171277 1.74602 -3.36888 -3.65918
18 1 4.67935 0.57793 0.0449499 1.14271 -3.61521 -3.46862
19 1 2.66936 0.623884 2.03188 1.51076 -3.91228 -3.60861
20 1 4.6878 14.7875 2.08109 2.06348 -3.3392 -3.58921
21 1 6.71848 14.741 0.0340629 1.167 -3.82274 -3.6007
22 1 8.72125 0.572834 0.0138345 1.42601 -4.80391 -4.04415
23 1 6.71167 0.60272 2.0733 1.01489 -3.42465 -4.04353
24 1 8.73507 14.7711 2.04458 1.13288 -3.61428 -5.04318
25 1 10.764 14.7422 16.1736 1.46602 -4.0141 -4.47562
26 1 12.7711 0.586055 0.015969 1.67645 -4.38871 -4.16777
27 1 10.7415 0.612771 2.04862 1.18334 -4.37827 -4.83403
28 1 12.7671 14.7802 2.04576 1.41898 -3.6479 -3.7326
29 1 14.7788 14.7586 0.0184342 1.87136 -3.74752 -3.28893
30 1 0.623818 0.594558 -0.00301815 1.7147 -3.41124 -3.24168
31 1 14.8016 0.619966 2.06416 1.18587 -4.25713 -3.83524
32 1 0.632056 14.8137 2.02663 1.91414 -3.5002 -3.09881
33 1 2.64656 2.6065 0.0110636 0.975083 -3.92053 -4.28457
34 1 4.64947 4.66546 0.0467014 1.19357 -3.9204 -4.63482
35 1 2.62051 4.68977 2.01554 1.00748 -4.34906 -4.37589
36 1 4.67417 2.65438 2.05318 1.70328 -3.4438 -3.92637
37 1 6.68067 2.61709 0.0596154 1.70932 -3.97995 -3.76451
38 1 8.69288 4.65941 0.00152391 2.01538 -4.15696 -3.75039
39 1 6.67045 4.69708 2.04167 1.82836 -3.73986 -4.54693
40 1 8.68461 2.62747 2.04679 1.84869 -4.04108 -4.18803
41 1 10.7283 2.59653 0.0210099 2.16999 -4.46767 -4.54277
42 1 12.7408 4.6352 0.00534199 1.73075 -3.80859 -4.55907
43 1 10.7018 4.65519 2.00878 1.86401 -4.2167 -4.24053
44 1 12.7545 2.63144 2.05904 1.32174 -4.4329 -4.3648
45 1 14.7744 2.59678 0.0267651 0.979081 -4.43559 -3.7474
46 1 0.579883 4.64248 0.010894 0.567059 -3.99073 -3.54818
47 1 14.7592 4.65804 2.0226 0.423842 -4.16502 -3.87822
48 1 0.634163 2.6323 2.02839 0.863581 -3.78544 -3.64023
49 1 2.59034 6.69996 0.0059875 1.21157 -3.83513 -3.47531
50 1 4.62607 8.72272 0.0142398 1.08552 -3.24144 -3.50295
51 1 2.58942 8.74423 2.02992 1.99922 -3.59055 -3.61165
52 1 4.62715 6.73465 2.02014 1.47661 -3.80148 -4.5827
53 1 6.68081 6.71323 0.00135965 1.43368 -3.83961 -4.47468
54 1 8.69457 8.73057 16.1653 1.19622 -3.27929 -4.11859
55 1 6.65627 8.73813 2.03429 1.99271 -3.47395 -4.53417
56 1 8.69834 6.71302 2.00577 1.36214 -3.91766 -5.11521
57 1 10.7393 6.6945 16.1502 1.58964 -3.49704 -4.14676
58 1 12.7449 8.7387 16.17 1.31851 -2.55007 -3.45988
59 1 10.7009 8.73752 2.01074 1.71339 -3.35273 -5.25519
60 1 12.7202 6.70789 1.99045 1.39984 -3.26954 -4.32607
61 1 14.7401 6.69841 0.00456039 0.770487 -3.19416 -4.02909
62 1 0.577494 8.74551 16.1772 1.15704 -2.72955 -3.66928
63 1 14.7521 8.74714 2.0149 1.18734 -3.36762 -4.18314
64 1 0.565861 6.70763 2.00319 1.19251 -3.84706 -3.5861
65 1 2.62373 10.7743 4.0717 1.55957 -3.54817 -3.62341
66 1 4.6552 12.802 4.08357 1.90121 -4.31705 -3.02634
67 1 2.63855 12.8366 6.08459 0.345931 -4.65651 -3.74528
68 1 4.62642 10.7695 6.07085 0.718101 -3.61027 -3.14106
69 1 6.65968 10.7352 4.08672 2.05043 -3.42393 -4.04392
70 1 8.70793 12.7777 4.0727 1.53963 -3.68844 -4.50527
71 1 6.6951 12.7761 6.06891 1.03809 -4.53282 -3.44958
72 1 8.69096 10.7436 6.09753 1.55786 -3.39541 -3.61083
73 1 10.6869 10.7565 4.06284 1.89182 -3.33942 -4.2492
74 1 12.7336 12.803 4.03964 0.923262 -3.35562 -3.77823
75 1 10.7287 12.7888 6.06689 0.698706 -3.70084 -3.52187
76 1 12.7411 10.7804 6.03801 1.10436 -3.44465 -3.42341
77 1 14.7792 10.7747 4.0323 1.3517 -2.73953 -4.05511
78 1 0.630729 12.8169 4.05369 1.3444 -3.40864 -4.03498
79 1 14.7836 12.8143 6.01685 1.06093 -4.39131 -3.61013
80 1 0.619721 10.7878 6.04614 0.615437 -3.28652 -4.23841
81 1 2.65945 14.8485 4.07947 1.91048 -4.18193 -3.9459
82 1 4.66961 0.664834 4.08465 1.88179 -3.69188 -3.19085
83 1 2.65005 0.674225 6.09964 1.25655 -4.02981 -3.30837
84 1 4.6699 14.8234 6.09391 1.12415 -4.52062 -2.97436
85 1 6.71547 14.8104 4.08046 1.62594 -4.52948 -3.54682
86 1 8.70571 0.636768 4.07742 1.26847 -4.00457 -3.96662
87 1 6.6824 0.652728 6.10336 1.39264 -4.24765 -3.62451
88 1 8.73363 14.7938 6.08407 1.50591 -3.99082 -4.34512
89 1 10.7436 14.8392 4.05819 0.705213 -4.28893 -4.71794
90 1 12.7446 0.675242 4.07399 1.01156 -4.51956 -4.16815
91 1 10.7116 0.668835 6.10263 1.6819 -4.62103 -4.27416
92 1 12.7548 14.8264 6.06147 1.16116 -4.42798 -3.77868
93 1 14.7959 14.8282 4.05164 0.973608 -3.78489 -3.72291
94 1 0.645841 0.661801 4.06342 1.60724 -3.69608 -4.21523
95 1 14.7834 0.667227 6.07513 1.3124 -4.13847 -3.69935
96 1 0.63147 14.8434 6.06974 1.13621 -3.97421 -3.43418
97 1 2.65115 2.68638 4.05664 1.08628 -3.53914 -3.73967
98 1 4.63219 4.73638 4.0645 1.51353 -3.86622 -3.70084
99 1 2.60495 4.72464 6.10183 0.629342 -3.90336 -3.85036
100 1 4.65209 2.70998 6.10298 1.24864 -3.49515 -3.30249
101 1 6.6544 2.68221 4.09878 1.48925 -3.7978 -3.32882
102 1 8.67049 4.69509 4.05753 1.77606 -3.41428 -4.12155
103 1 6.64979 4.74367 6.09989 1.3143 -3.40438 -3.75115
104 1 8.66864 2.68539 6.1116 2.57426 -3.3175 -3.50491
105 1 10.6815 2.68506 4.07131 1.83985 -4.32255 -4.0725
106 1 12.714 4.68419 4.02666 0.952189 -3.49132 -4.02338
107 1 10.6994 4.72082 6.08833 1.75057 -3.79725 -3.81151
108 1 12.7309 2.69989 6.07888 1.78412 -4.51723 -3.92348
109 1 14.7772 2.67422 4.06531 0.917007 -4.10547 -3.64979
110 1 0.607327 4.66889 4.0513 0.324337 -3.7684 -3.41361
111 1 14.7513 4.70361 6.0626 0.675501 -3.64785 -3.3906
112 1 0.634884 2.67837 6.09181 1.04944 -3.75607 -3.657
113 1 2.58825 6.7148 4.04096 1.48439 -3.57233 -4.01969
114 1 4.61675 8.72763 4.06476 2.20037 -3.19666 -3.36836
115 1 2.57377 8.74997 6.09276 1.17025 -3.56005 -3.06538
116 1 4.6016 6.75401 6.09414 1.02156 -3.57472 -3.55842
117 1 6.67158 6.72839 4.05055 1.75088 -3.57494 -4.38649
118 1 8.68292 8.71118 4.06856 1.77408 -3.20988 -4.69887
119 1 6.65065 8.72867 6.09495 1.34217 -3.61716 -3.87897
120 1 8.7059 6.71202 6.10413 1.55129 -2.78371 -4.76752
121 1 10.719 6.7129 4.02902 1.14208 -3.3892 -4.72483
122 1 12.7296 8.74451 4.02913 1.58258 -3.11697 -4.23455
123 1 10.7084 8.74603 6.08633 1.44377 -3.31715 -4.36511
124 1 12.7267 6.73828 6.0463 1.54935 -2.63004 -3.80721
125 1 14.7573 6.7005 4.03402 0.856404 -2.90393 -4.44532
126 1 0.58665 8.7308 4.04191 1.83728 -3.12765 -4.783
127 1 14.7608 8.755 6.03908 1.43382 -3.15155 -4.03304
128 1 0.558976 6.70888 6.08673 0.804389 -3.23994 -3.49694
129 1 2.61481 10.7973 8.09362 0.209409 -3.61047 -2.72783
130 1 4.64398 12.7952 8.08316 0.421391 -4.1129 -2.82537
131 1 2.65905 12.7863 10.1326 0.90079 -3.09021 -3.37627
132 1 4.63571 10.7502 10.0937 1.19541 -3.54639 -2.92934
133 1 6.65261 10.759 8.08775 1.14126 -3.91373 -3.28822
134 1 8.70174 12.7677 8.10455 1.93097 -3.69382 -3.87193
135 1 6.67895 12.7624 10.1102 1.47623 -3.39566 -3.6571
136 1 8.66615 10.744 10.133 1.41561 -3.5649 -3.39761
137 1 10.7115 10.7712 8.1021 1.30267 -3.32569 -3.14996
138 1 12.7433 12.7629 8.0535 1.27506 -3.58451 -2.75607
139 1 10.7329 12.7326 10.1252 1.10018 -3.64172 -3.36352
140 1 12.748 10.7562 10.0959 0.655739 -3.60382 -3.06655
141 1 14.7837 10.7958 8.02184 1.25148 -3.4627 -3.21877
142 1 0.610338 12.8159 8.0783 0.631646 -3.52205 -3.19043
143 1 14.7984 12.7672 10.0851 0.99821 -3.35392 -3.04688
144 1 0.617263 10.7834 10.0969 0.691297 -3.24963 -3.3576
145 1 2.6311 14.8211 8.12517 0.742464 -4.13789 -3.12193
146 1 4.67256 0.634088 8.11745 0.462231 -3.63778 -3.63382
147 1 2.66514 0.622999 10.1399 0.326201 -3.22497 -2.81045
148 1 4.67926 14.7708 10.1379 1.38518 -3.74401 -3.69483
149 1 6.69235 14.7747 8.08771 1.03279 -4.2457 -3.68434
150 1 8.70514 0.615344 8.11642 1.55927 -4.18696 -3.79256
151 1 6.6946 0.597378 10.124 1.08969 -3.80881 -3.72957
152 1 8.72549 14.7587 10.1272 0.968382 -3.946 -4.1355
153 1 10.7322 14.7784 8.11203 0.98411 -4.11042 -3.91537
154 1 12.7504 0.631712 8.09304 1.45232 -4.68781 -4.33287
155 1 10.7378 0.604304 10.1252 0.817563 -4.7849 -3.90952
156 1 12.7772 14.748 10.099 0.877345 -4.12292 -3.13489
157 1 14.7612 14.7814 8.08061 1.56475 -4.22051 -2.89454
158 1 0.625357 0.632439 8.10581 0.544039 -3.68398 -3.26108
159 1 14.783 0.613933 10.0898 0.663255 -4.52568 -3.30055
160 1 0.625597 14.7934 10.1364 1.268 -3.08782 -2.62301
161 1 2.66044 2.68007 8.10982 -0.20792 -3.44858 -3.49806
162 1 4.63839 4.73977 8.11812 0.292451 -3.6139 -3.87601
163 1 2.6095 4.68486 10.1304 0.2064 -3.46138 -3.03002
164 1 4.67559 2.65769 10.1165 0.6283 -3.77272 -3.78618
165 1 6.68662 2.68577 8.12452 0.95225 -3.74928 -3.75593
166 1 8.69503 4.71627 8.12209 2.05448 -3.71901 -3.42528
167 1 6.65294 4.69383 10.1251 1.64743 -3.75212 -3.89136
168 1 8.69106 2.63559 10.1287 1.54703 -4.34538 -3.21544
169 1 10.7227 2.66969 8.11441 1.57655 -4.28845 -3.94206
170 1 12.7399 4.70956 8.07735 1.10955 -3.58414 -3.5134
171 1 10.71 4.67003 10.1153 0.675057 -3.83342 -3.4795
172 1 12.751 2.63936 10.0798 0.327949 -4.47919 -3.57496
173 1 14.7863 2.6583 8.07362 0.550915 -4.12481 -3.36183
174 1 0.586937 4.69844 8.10553 -0.135268 -3.2746 -2.37698
175 1 14.7505 4.66792 10.0854 -0.119114 -3.70547 -3.02383
176 1 0.627395 2.64572 10.098 -0.4282 -3.36974 -2.8709
177 1 2.57311 6.7475 8.11258 0.382127 -3.925 -2.64069
178 1 4.60417 8.75236 8.09351 0.497089 -3.46235 -2.46111
179 1 2.58648 8.73483 10.125 1.15457 -3.52263 -1.95619
180 1 4.60371 6.71524 10.1334 1.17842 -3.72062 -3.11045
181 1 6.65615 6.76 8.11051 0.7036 -3.58003 -3.86457
182 1 8.68701 8.75477 8.12699 1.09998 -3.31881 -3.8682
183 1 6.62785 8.73366 10.1253 1.3876 -3.60249 -3.38646
184 1 8.68487 6.7129 10.1411 0.833913 -3.84836 -3.66974
185 1 10.7225 6.74497 8.12069 0.763505 -3.30669 -3.67257
186 1 12.7415 8.77665 8.0805 0.865161 -2.89703 -3.04352
187 1 10.7091 8.74023 10.1332 0.470371 -3.50174 -3.41663
188 1 12.7362 6.71079 10.0974 0.144234 -3.02123 -2.85501
189 1 14.7302 6.74169 8.08284 0.231013 -3.16695 -3.24004
190 1 0.569252 8.77249 8.07986 0.683158 -3.42769 -3.30125
191 1 14.764 8.76761 10.079 0.601675 -3.08099 -2.91672
192 1 0.552098 6.70869 10.121 0.512792 -3.14324 -1.94262
193 1 2.629 10.7328 12.1357 0.937332 -3.39949 -2.41485
194 1 4.66349 12.7567 12.1525 1.33088 -3.21446 -3.36296
195 1 2.66044 12.745 14.1725 1.29997 -3.46798 -3.65512
196 1 4.63914 10.712 14.1596 0.805046 -2.87067 -3.35291
197 1 6.63008 10.7308 12.1437 1.14882 -3.72497 -3.74819
198 1 8.69506 12.7439 12.1411 0.749156 -3.07072 -3.57731
199 1 6.68353 12.7259 14.1683 1.39129 -3.68486 -3.41453
200 1 8.67472 10.7137 14.1462 1.11077 -3.06449 -3.13618
201 1 10.7105 10.7193 12.1337 0.61734 -2.63275 -3.31973
202 1 12.7593 12.7272 12.1162 0.726629 -3.29146 -3.19326
203 1 10.744 12.7081 14.1444 1.69452 -3.34172 -3.80436
204 1 12.7576 10.7259 14.1514 1.22676 -2.79233 -3.30793
205 1 14.7996 10.7445 12.1006 0.777802 -3.26069 -3.28186
206 1 0.625533 12.7701 12.1295 0.927418 -3.67588 -3.13611
207 1 14.7896 12.7449 14.146 1.80233 -3.28395 -3.02659
208 1 0.622162 10.7536 14.151 0.841389 -3.07665 -3.58389
209 1 2.66058 14.7802 12.1631 0.911428 -3.49788 -3.11195
210 1 4.68392 0.61479 12.157 0.852228 -3.65373 -3.79965
211 1 2.66013 0.600526 14.1616 0.810237 -3.67963 -3.28186
212 1 4.68689 14.756 14.1916 1.16718 -4.0357 -3.59382
213 1 6.69084 14.7648 12.137 1.09986 -3.93075 -3.89848
214 1 8.71252 0.610327 12.1311 0.258569 -4.16725 -3.58598
215 1 6.69798 0.582746 14.1935 1.27399 -4.12275 -3.73005
216 1 8.73452 14.7528 14.1531 0.922606 -4.08668 -3.9794
217 1 10.7422 14.7622 12.1339 0.402508 -3.59847 -3.60566
218 1 12.771 0.606275 12.1175 0.188365 -4.71108 -4.15152
219 1 10.7616 0.591356 14.1449 1.28096 -4.53349 -4.16618
220 1 12.7773 14.7433 14.1389 1.47739 -4.10426 -3.75103
221 1 14.778 14.775 12.1229 0.562621 -3.93486 -2.95075
222 1 0.623316 0.617393 12.1231 0.870982 -3.78947 -2.88574
223 1 14.7787 0.603558 14.1542 0.873702 -4.30044 -3.72141
224 1 0.622513 14.7737 14.144 1.69983 -4.01488 -2.64384
225 1 2.65605 2.62419 12.1346 0.527516 -4.08624 -3.62326
226 1 4.64609 4.65996 12.171 2.02303 -4.06634 -4.08479
227 1 2.61012 4.64188 14.1911 0.773027 -3.44264 -4.27107
228 1 4.6711 2.61576 14.2017 1.26625 -3.58606 -4.23151
229 1 6.66502 2.62842 12.1668 1.42123 -3.92579 -4.08134
230 1 8.68911 4.64558 12.1439 1.92748 -3.195 -3.20015
231 1 6.67019 4.64163 14.2019 1.81966 -3.7203 -4.27192
232 1 8.69586 2.59696 14.1739 2.00468 -3.90518 -3.33522
233 1 10.7337 2.61872 12.1264 1.01329 -4.03566 -4.34523
234 1 12.7473 4.62588 12.1173 0.4473 -3.13029 -4.19938
235 1 10.7279 4.61143 14.161 1.34262 -3.35588 -3.88522
236 1 12.7563 2.5958 14.1765 1.32893 -4.3927 -4.64293
237 1 14.783 2.62482 12.1017 0.0449324 -4.33014 -3.53027
238 1 0.592081 4.63043 12.132 0.448612 -3.96483 -2.5145
239 1 14.749 4.62214 14.1753 0.434353 -3.31155 -3.72361
240 1 0.614834 2.6182 14.164 0.270355 -4.21678 -3.78825
241 1 2.59056 6.66008 12.1582 1.34282 -3.92455 -2.10464
242 1 4.61561 8.68772 12.1433 1.47915 -3.52083 -2.40764
243 1 2.59708 8.69857 14.1728 0.751084 -3.26972 -3.02785
244 1 4.62847 6.66893 14.1995 1.6244 -3.86387 -3.77626
245 1 6.65546 6.66479 12.1542 1.74268 -3.6401 -3.32408
246 1 8.67224 8.71312 12.1485 0.54603 -3.20767 -3.49552
247 1 6.64894 8.68753 14.1511 1.00505 -2.98735 -3.2473
248 1 8.70381 6.66751 14.1534 1.16924 -3.46708 -3.67802
249 1 10.7306 6.66608 12.1422 0.755159 -2.78669 -3.19915
250 1 12.7624 8.70902 12.126 0.106989 -2.72322 -3.30914
251 1 10.7321 8.70449 14.1361 1.22325 -2.48301 -3.5768
252 1 12.754 6.66469 14.1521 0.79921 -2.39977 -3.79296
253 1 14.751 6.67264 12.1359 0.170137 -2.88069 -3.44064
254 1 0.593992 8.71754 12.1331 1.05714 -3.65025 -2.60296
255 1 14.7676 8.72851 14.1516 1.05746 -2.6894 -3.67134
256 1 0.56577 6.67101 14.17 0.851466 -3.5091 -2.9761
