ITEM: TIMESTEP
14000000
ITEM: NUMBER OF ATOMS
256
ITEM: BOX BOUNDS pp pp pp
0.0000000000000000e+00 1.6184000000000001e+01
0.0000000000000000e+00 1.6184000000000001e+01
0.0000000000000000e+00 1.6184000000000001e+01
ITEM: ATOMS id type x y z vx vy vz
1 1 14.7157 8.18381 1.98407 1.50687 -1.7405 1.79357
2 1 0.49134 10.2838 2.10746 4.29702 -2.52433 -5.17867
3 1 14.5935 10.3298 4.01744 0.0615258 -3.6956 -5.92689
4 1 0.668481 8.22284 4.21629 -1.26103 -4.06144 -2.5201
5 1 2.54399 8.30046 1.9936 -0.936563 2.17032 -4.02297
6 1 4.76928 10.3274 2.15014 -3.37044 -1.37273 -3.81986
7 1 2.5485 10.4267 4.14476 -0.825477 -3.31401 -1.46165
8 1 4.67608 8.16131 4.1821 0.920401 -8.6468 1.62105
9 1 6.61764 8.18068 2.0941 -1.87673 4.33832 0.906698
10 1 8.7088 10.4461 2.06895 3.38439 3.9405 -3.7875
11 1 6.57297 10.2151 4.1603 -2.19556 -1.15992 -3.3745
12 1 8.56444 8.13687 4.13166 1.84782 -1.8672 1.3497
13 1 10.5701 8.22276 1.9693 2.96031 2.11056 -4.15744
14 1 12.5647 10.3678 1.96073 -2.92183 -3.67114 -2.49292
15 1 10.6064 10.2224 4.10798 4.25065 -2.76901 -1.71314
16 1 12.5806 8.29084 4.00984 -3.7475 -1.88108 0.344738
17 1 14.6947 12.2927 2.07422 3.57619 1.58307 -1.5695
18 1 0.526006 14.3871 2.13057 2.77181 -2.38209 -4.54382
19 1 14.6486 14.2731 4.0019 -2.6479 -4.55732 -0.963067
20 1 0.55577 12.3617 4.05139 4.0397 3.19585 -2.15656
21 1 2.54634 12.3526 2.09595 -2.33017 0.151924 -2.80245
22 1 4.55704 14.4155 2.09607 1.93961 -0.257668 3.54751
23 1 2.69393 14.3644 4.10941 4.54115 -4.26275 -6.24398
24 1 4.582 12.3902 4.05823 3.26646 -0.963171 -3.51589
25 1 6.63703 12.3768 2.09311 2.69394 -6.46066 -2.99603
26 1 8.74842 14.4251 2.03265 -0.623191 -4.41673 -1.27489
27 1 6.74159 14.4452 4.04788 6.31472 0.604149 2.17145
28 1 8.67452 12.3615 4.16224 0.579323 -2.91598 -7.46162
29 1 10.6644 12.4405 2.07113 0.900636 0.112904 0.294541
30 1 12.6727 14.4215 1.94303 1.11997 -4.36946 -3.03977
31 1 10.8691 14.3653 4.05021 1.65723 -4.29194 -1.25569
32 1 12.506 12.2195 3.98784 -1.19331 -1.8592 1.62219
33 1 14.8723 0.196506 2.11273 -0.0750452 -3.85514 -0.0034635
34 1 0.584716 2.11514 1.95419 1.1183 -3.64264 -1.30531
35 1 14.6761 2.24748 4.00566 1.36768 -6.58429 -2.928
36 1 0.502051 0.237462 4.11774 -0.0245459 0.290789 4.90053
37 1 2.51112 0.151454 2.10964 4.85466 0.568554 -4.31741
38 1 4.71011 2.23918 2.03306 -4.23614 -4.72035 -3.69587
39 1 2.63798 2.18489 4.03823 4.16723 -4.82971 -3.92858
40 1 4.60102 0.214773 3.96069 2.34888 -1.6814 -2.19544
41 1 6.68851 0.236528 1.91227 -4.54732 -2.77233 2.76936
42 1 8.66313 2.22545 2.01754 2.29813 -3.2561 -2.34885
43 1 6.58913 2.19432 3.99083 0.338395 -6.13569 0.520166
44 1 8.76664 0.240333 3.99941 1.98409 -2.83932 -1.16035
45 1 10.6982 0.217332 1.98106 1.2996 -3.25807 1.03407
46 1 12.6827 2.26911 1.95278 0.634163 -4.87587 -1.94109
47 1 10.7172 2.28512 3.97348 -1.56162 -4.89963 -3.54758
48 1 12.6881 0.170887 4.03166 5.59447 -2.53638 -2.56477
49 1 14.7036 4.30646 2.04231 -2.12824 -1.55068 -2.06053
50 1 0.516451 6.2291 1.99699 0.724881 -4.31273 -1.30375
51 1 14.8662 6.3508 4.05876 0.350463 0.386065 -6.7617
52 1 0.643131 4.20609 4.07858 3.12718 -0.94307 -5.85247
53 1 2.72478 4.22387 2.05737 0.270116 -0.656574 -7.47342
54 1 4.58731 6.27779 2.01651 -3.56762 5.75776 -0.881274
55 1 2.55932 6.39304 4.04856 -2.25421 -3.07771 0.28652
56 1 4.73814 4.27619 4.10354 -0.134065 -6.45537 -0.852781
57 1 6.46358 4.15636 1.82073 -0.316047 -3.46696 1.55869
58 1 8.53611 6.1875 1.97984 -0.17094 -3.40832 -0.0483319
59 1 6.73284 6.08136 3.93172 3.37836 -0.348061 -3.09037
60 1 8.74585 4.20756 3.83652 2.87137 2.48718 1.52599
61 1 10.7628 4.26157 1.93883 -0.295539 -3.18181 -0.259059
62 1 12.6203 6.30133 2.18469 -2.70688 -3.03853 -1.9637
63 1 10.545 6.32533 3.93052 -0.279065 -3.80407 -2.09675
64 1 12.6257 4.16369 4.16711 0.506832 -0.930708 -0.422164
65 1 14.7318 8.28243 6.10608 1.20619 2.28921 -1.15746
66 1 0.556146 10.3628 6.11381 0.968113 -1.15417 -3.63967
67 1 14.7683 10.3863 8.01623 0.702364 0.725218 -1.56814
68 1 0.484078 8.36914 8.05021 0.270852 -3.36752 -3.6969
69 1 2.56648 8.33065 6.23962 1.11283 -3.76101 -1.88668
70 1 4.58689 10.2395 6.04182 1.52901 1.2521 -1.7767
71 1 2.6974 10.325 8.18977 -0.352383 -3.87529 -2.85165
72 1 4.77149 8.17128 8.22656 2.96307 -1.25241 -7.95446
73 1 6.66636 8.14811 6.15355 -1.70988 -7.94024 -4.93331
74 1 8.63891 10.2797 6.1074 -1.03743 -5.52951 -3.54508
75 1 6.6475 10.3198 8.08122 0.334992 -0.705223 -2.8559
76 1 8.70728 8.42674 8.18144 1.61018 -7.13476 -1.48207
77 1 10.5639 8.21245 6.07509 2.11203 -1.18139 -0.449659
78 1 12.63 10.3111 6.1158 1.47757 0.989372 -0.739769
79 1 10.7101 10.2925 8.15465 0.548846 -1.17505 -4.92583
80 1 12.6727 8.17971 8.24609 3.71942 -8.63658 -3.12039
81 1 14.8896 12.3291 6.05186 -0.285018 -3.45952 -1.85093
82 1 0.632897 14.3328 5.98992 3.3924 2.11178 -2.23945
83 1 14.7978 14.3989 8.2235 -3.54659 -2.58373 0.0637261
84 1 0.527452 12.4309 8.09385 -0.771445 -4.52786 -1.63965
85 1 2.68854 12.4376 6.24487 -0.229538 -1.36828 2.66708
86 1 4.69838 14.5218 6.1008 -5.57698 -1.89232 -3.26174
87 1 2.47756 14.5061 8.19231 -0.697848 -0.806255 -2.535
88 1 4.6871 12.3724 8.03689 -5.42976 -3.17708 -3.46979
89 1 6.6888 12.5343 6.11937 -3.3056 -5.41488 -2.0891
90 1 8.67107 14.4237 6.14084 5.18324 -0.154112 -4.49964
91 1 6.65032 14.5214 8.07223 -0.0430652 0.336772 -3.77949
92 1 8.60417 12.3897 8.10714 0.19111 1.23752 -3.39458
93 1 10.635 12.4447 6.17091 -4.81125 -4.49959 -3.64138
94 1 12.7399 14.36 6.15704 -0.439085 -4.26712 -7.40823
95 1 10.6143 14.472 8.27887 5.06116 4.366 -3.6764
96 1 12.6551 12.4437 8.15984 5.87638 0.84652 0.36181
97 1 14.6476 0.149169 6.22346 -1.40423 1.9071 -2.95034
98 1 0.543662 2.29613 5.97727 2.29749 0.315813 -6.19886
99 1 14.791 2.23998 8.00866 -0.102212 -2.23496 -4.15574
100 1 0.529528 0.345132 8.18737 -1.08503 -1.62395 -3.16527
101 1 2.62736 0.155157 5.99466 0.581087 -3.94486 -1.50215
102 1 4.67666 2.16878 6.13845 1.10503 -5.06974 -6.6649
103 1 2.6145 2.20483 8.10806 -1.37041 -8.48567 -2.28691
104 1 4.62965 0.31695 8.05939 0.822542 -0.341488 5.78158
105 1 6.59845 0.223743 5.99117 -0.403767 0.278903 -3.21881
106 1 8.76567 2.26863 6.07941 4.30089 -3.63864 0.365461
107 1 6.69318 2.24492 8.11555 0.465975 -1.27328 -0.408267
108 1 8.80234 0.309094 8.06916 4.58231 -0.946313 -0.885039
109 1 10.7242 0.230067 6.03665 0.873249 -1.52905 -4.61376
110 1 12.7428 2.1957 6.17067 -3.52302 -3.68399 -0.685073
111 1 10.6848 2.36538 8.04233 1.18159 1.14453 -1.61569
112 1 12.7368 0.273167 8.19479 -0.771615 -3.51905 -5.44619
113 1 14.6577 4.28497 6.04399 1.76729 -0.145601 -5.6588
114 1 0.540135 6.30283 6.11852 -2.27654 -1.89202 -0.270858
115 1 14.704 6.17758 8.03311 -1.50464 -1.89547 -4.84915
116 1 0.627932 4.24404 8.08004 2.5559 1.58059 0.981712
117 1 2.61624 4.33055 6.13866 -0.919444 -0.499989 -0.705303
118 1 4.66761 6.28056 6.1748 -3.22961 -1.41012 -2.1986
119 1 2.43118 6.18904 8.18676 4.51914 1.71606 -6.05529
120 1 4.70942 4.293 8.17241 -3.10263 -0.290936 -2.27359
121 1 6.72955 4.13215 6.03196 2.10679 -2.15429 -5.59131
122 1 8.69381 6.15819 6.09404 -3.28128 -0.261536 -1.47078
123 1 6.70735 6.34234 8.28439 -1.63043 -0.126784 -1.93959
124 1 8.68585 4.28771 8.08511 0.736737 5.29746 0.847049
125 1 10.6309 4.3367 5.98482 7.74726 -4.73933 -1.45159
126 1 12.6511 6.28607 6.10452 -0.755498 -1.45208 -3.82729
127 1 10.601 6.27411 8.13656 -1.0674 -2.8359 -0.451807
128 1 12.62 4.23336 8.02497 1.55217 -4.93849 -4.73519
129 1 14.7606 8.24085 10.2365 -2.06298 2.10084 2.14989
130 1 0.587095 10.2567 10.1405 -1.28706 -2.0964 -3.22094
131 1 14.6626 10.3675 12.1493 -1.60859 -2.39967 -4.41289
132 1 0.467141 8.31229 12.2023 3.14868 0.904338 -1.56209
133 1 2.51579 8.16684 10.2698 2.03903 -2.82728 -3.82741
134 1 4.80017 10.3354 10.1295 3.73148 -0.022249 -1.10578
135 1 2.57952 10.3503 12.0148 0.472173 -3.28385 -4.70626
136 1 4.59038 8.32282 12.0943 -1.09068 -1.89495 -5.20203
137 1 6.76732 8.34402 10.1125 1.62617 -3.35613 -2.502
138 1 8.66158 10.3724 10.1001 1.42682 -5.67318 -6.20662
139 1 6.56732 10.2277 12.2299 0.321132 0.992509 -2.50562
140 1 8.74963 8.34068 12.1421 4.58257 -0.719488 -4.86101
141 1 10.6677 8.26984 10.1305 4.96433 -0.555344 -1.9248
142 1 12.8218 10.3373 10.1242 -3.83049 -2.1804 -4.59689
143 1 10.7019 10.3316 12.1087 0.80478 0.120416 0.658569
144 1 12.5058 8.12598 12.0988 5.91773 -3.13105 -2.14052
145 1 14.7058 12.3536 10.1581 4.54745 -0.623856 -1.49656
146 1 0.46751 14.3545 10.1165 6.76818 -2.01674 1.60459
147 1 14.8738 14.3969 12.2816 1.4095 -4.23222 -3.69576
148 1 0.5557 12.2078 12.1721 -1.92191 0.314861 -1.35328
149 1 2.52137 12.2661 10.0301 -4.60327 1.32839 2.96395
150 1 4.50373 14.4345 10.0806 -0.963131 -1.33998 -0.19936
151 1 2.55294 14.1963 12.0942 0.7703 -2.57466 2.51938
152 1 4.64224 12.3723 12.114 -0.602989 0.76542 0.0259888
153 1 6.68902 12.4095 10.1721 -2.28384 -0.695804 -2.23159
154 1 8.51505 14.3811 10.3761 2.65266 -1.94497 1.61348
155 1 6.44744 14.4287 12.2584 -0.568686 -0.50228 -2.8367
156 1 8.62567 12.2585 12.1434 -1.68146 1.04746 1.52762
157 1 10.6545 12.4086 10.2012 0.560675 -3.88806 -1.98448
158 1 12.826 14.4579 10.2585 0.37699 -3.04868 -1.66243
159 1 10.7307 14.4116 12.2914 -1.20716 -1.18214 -4.82375
160 1 12.6909 12.3459 12.1465 -1.37848 -2.0401 -2.24585
161 1 14.7787 0.164687 10.2111 -0.304851 -1.73931 -7.72477
162 1 0.576688 2.29684 10.1893 -0.588542 -6.25345 -2.83313
163 1 14.6281 2.34629 12.2573 2.45287 -4.43159 -1.15237
164 1 0.579856 0.116727 12.1974 4.38064 -3.39822 -3.21768
165 1 2.62041 0.29925 10.1957 -2.01501 0.343424 -0.097074
166 1 4.5632 2.32097 10.2404 -6.77457 -3.39144 -2.98115
167 1 2.54422 2.35579 12.1261 2.39776 -1.38329 -6.08334
168 1 4.45647 0.212518 12.1845 -3.11444 -8.46889 1.81151
169 1 6.5275 0.09684 10.0507 1.06673 0.790422 -3.45114
170 1 8.67015 2.10338 10.2296 -4.98404 1.07844 -1.60833
171 1 6.56147 2.25046 12.1833 2.76238 -4.41434 -2.37814
172 1 8.63063 0.204189 12.2423 2.78737 -2.75581 -0.635124
173 1 10.6971 0.105375 10.1848 -4.56312 -7.63615 -1.80712
174 1 12.7221 2.22505 10.0976 3.81054 0.448722 -5.32744
175 1 10.7151 2.37914 12.1534 0.295882 -0.762867 -4.59556
176 1 12.8112 0.234749 12.3297 -0.848613 -1.31725 2.69734
177 1 14.5686 4.15808 10.0247 1.25356 1.09386 -2.82238
178 1 0.532843 6.4337 10.2272 6.03809 -6.50401 -2.02899
179 1 14.686 6.24655 12.136 -2.75438 1.06286 -3.94672
180 1 0.3945 4.23092 12.2494 1.51677 -1.56864 -0.702083
181 1 2.41579 4.37113 10.1382 0.8127 -3.83389 -2.46836
182 1 4.63398 6.20924 10.1636 1.98723 0.229471 -5.25073
183 1 2.58021 6.30708 12.1777 4.65049 -2.08611 1.37844
184 1 4.63284 4.31339 12.1851 -4.99306 -2.42438 -1.04226
185 1 6.67977 4.13226 10.1775 2.99858 0.104966 -8.16932
186 1 8.71705 6.32978 10.1987 2.3258 0.617066 1.44255
187 1 6.55313 6.3139 12.1927 2.07076 -2.757 -4.90574
188 1 8.55592 4.35491 12.0411 0.359712 -3.50674 0.00982351
189 1 10.665 4.19305 10.0628 3.3134 -4.29265 -0.897536
190 1 12.5271 6.13793 10.1589 0.287222 -3.04704 -1.82478
191 1 10.5804 6.13648 12.1023 0.113215 -5.14201 -1.54025
192 1 12.8028 4.29807 12.1457 1.61647 -6.74896 1.38168
193 1 14.7622 8.28311 14.2657 6.8218 -4.12621 -2.30003
194 1 0.51444 10.2801 14.1578 2.03809 -1.3219 -0.524044
195 1 14.653 10.2582 -0.0126125 5.85914 -1.03483 -4.63023
196 1 0.665177 8.35164 -0.0310984 1.24356 -4.9777 -1.11597
197 1 2.57019 8.37011 14.269 2.9992 -4.10982 -1.86848
198 1 4.57326 10.3012 14.0952 0.603156 3.94204 -3.15721
199 1 2.5199 10.4981 0.0302961 -0.468301 -1.7235 -1.14907
200 1 4.53984 8.31832 0.0535708 2.28516 2.16698 -4.12165
201 1 6.54215 8.3005 14.2523 -8.14063 1.06139 0.563997
202 1 8.65202 10.2294 14.3033 3.52599 -0.832626 -3.95917
203 1 6.5929 10.275 0.0489104 0.0405582 0.83698 -1.19932
204 1 8.61539 8.29564 0.0961491 0.399761 -2.48461 -2.21391
205 1 10.7322 8.24356 14.187 2.38312 -0.615441 -1.56579
206 1 12.6582 10.3856 14.1719 1.1192 -3.64372 -1.09026
207 1 10.7108 10.2967 -0.0579781 -1.24557 -1.91 -3.94372
208 1 12.7088 8.27395 0.0377056 2.58268 -3.59559 -0.988159
209 1 14.665 12.3723 14.2752 -1.82585 1.0124 -2.70715
210 1 0.498344 14.3481 14.2324 6.80455 -0.0674525 -0.690966
211 1 14.6895 14.4321 0.164004 -0.0943748 -3.12731 -5.21833
212 1 0.461795 12.3906 0.173249 -2.31923 -5.90725 1.16382
213 1 2.57128 12.2483 14.1248 -0.330165 -2.09373 -1.30221
214 1 4.46761 14.3879 14.2377 1.62926 -9.47016 -3.78753
215 1 2.51879 14.4589 0.0784019 2.86714 -1.44129 0.272414
216 1 4.57923 12.2999 0.0824848 -0.607073 -4.1519 -0.712433
217 1 6.60082 12.2542 14.2264 4.80347 1.64144 -2.47397
218 1 8.68339 14.3465 14.1959 4.05805 -2.42248 1.92523
219 1 6.60154 14.3416 16.0459 5.00013 -2.41528 -5.81102
220 1 8.60374 12.3444 -0.0105668 0.449799 -2.71697 -1.44633
221 1 10.6095 12.3215 14.1819 -3.28502 -1.48513 -2.50701
222 1 12.6772 14.3687 14.1471 -0.176324 -5.18462 -3.83155
223 1 10.8096 14.3105 16.1506 4.51629 -6.86322 0.633198
224 1 12.6909 12.4336 0.0100097 0.948186 -5.69962 0.428825
225 1 14.8075 0.200601 14.1434 1.35546 2.70684 0.0870759
226 1 0.644809 2.21531 14.2161 -0.943418 -2.02889 1.66451
227 1 14.6321 2.324 0.0975099 -1.74806 -1.4888 -5.76644
228 1 0.492553 0.233032 0.0571737 2.68222 2.87908 -7.33522
229 1 2.50084 0.149867 14.2329 3.52834 -5.42394 -4.49849
230 1 4.52015 2.17133 14.0704 -0.485266 -0.646947 -1.07045
231 1 2.5882 2.19995 0.000723429 3.55591 1.40779 0.00435298
232 1 4.79214 0.208016 0.0801327 2.34943 -5.58082 -2.21502
233 1 6.54467 0.19354 14.1252 -3.51327 -0.432349 -1.66983
234 1 8.63221 2.31521 14.0767 -3.03571 -2.97448 2.05486
235 1 6.66778 2.21639 16.128 -1.35612 -3.78244 -2.23415
236 1 8.59001 0.0502769 0.0845044 -0.785477 -3.7069 -5.36777
237 1 10.5739 0.315749 14.1726 -1.45639 -4.16599 -5.80624
238 1 12.6486 2.30376 14.2276 0.235832 -3.06755 1.36214
239 1 10.5733 2.11609 16.1518 -0.743176 -3.7992 -1.87623
240 1 12.8557 0.262905 16.0735 0.184736 -1.14476 -2.67059
241 1 14.7632 4.51802 14.1962 1.29864 -0.197963 -1.79975
242 1 0.618469 6.39027 14.2208 -2.49247 3.42596 -0.858417
243 1 14.6755 6.26735 0.0803825 -3.81012 -3.28389 -2.92599
244 1 0.526884 4.21563 0.0929999 2.34555 -1.11016 1.22523
245 1 2.46146 4.34823 14.1559 4.92204 -4.84445 -0.193984
246 1 4.67356 6.34537 14.2184 2.55135 -2.06801 1.55603
247 1 2.47986 6.18096 0.0318617 1.32887 -4.38431 2.13954
248 1 4.47308 4.21748 16.0762 -1.74648 -3.59264 0.975134
249 1 6.65992 4.18175 14.2774 4.01772 -3.07811 -0.157396
250 1 8.61653 6.31966 14.1815 2.66476 -3.21726 -2.51064
251 1 6.65893 6.24399 0.0870522 2.24028 -1.91219 0.689374
252 1 8.56978 4.27455 -0.0495989 -2.13716 -0.0786209 -4.94093
253 1 10.6475 4.24027 14.0629 2.25765 1.15874 -5.29098
254 1 12.6238 6.25734 14.0964 4.26824 -6.28218 -0.374392
255 1 10.7008 6.15749 16.2247 -0.921145 -0.192725 3.65499
256 1 12.6008 4.18169 16.168 -2.94008 -0.981029 -0.0692549
