ITEM: TIMESTEP
96000000
ITEM: NUMBER OF ATOMS
256
ITEM: BOX BOUNDS pp pp pp
0.0000000000000000e+00 1.6184000000000001e+01
0.0000000000000000e+00 1.6184000000000001e+01
0.0000000000000000e+00 1.6184000000000001e+01
ITEM: ATOMS id type x y z vx vy vz
1 1 6.59983 5.43503 2.22296 0.55232 1.66356 -1.69858
2 1 8.65201 7.6769 2.20862 0.367088 -0.929517 -6.75322
3 1 6.53375 7.53312 4.28255 -5.13474 2.06075 -2.0484
4 1 8.62373 5.4931 4.1155 0.421561 -3.05439 -2.06709
5 1 10.6419 5.67502 2.12835 3.08897 4.22462 3.80718
6 1 12.6719 7.57462 2.03227 4.64265 -3.07226 0.990861
7 1 10.4772 7.77345 4.10199 -0.316054 -7.39361 -0.164711
8 1 12.6266 5.68034 4.09044 2.97729 -1.04208 -2.15859
9 1 14.7124 5.43687 2.1273 1.13869 -3.58405 -4.28729
10 1 0.530759 7.72179 2.12691 2.54356 0.432059 1.78964
11 1 14.7205 7.49461 4.09744 2.23812 -2.32717 -0.39983
12 1 0.614883 5.68328 4.17359 0.581411 0.36019 -4.28543
13 1 2.59951 5.62454 2.084 1.56233 0.624392 0.986558
14 1 4.62839 7.64487 1.96417 1.8504 1.14845 -4.26016
15 1 2.59979 7.50984 4.20743 0.968457 3.8418 -7.0836
16 1 4.47798 5.55381 4.14527 3.56181 -2.69801 -2.27795
17 1 6.66756 9.62247 2.20071 1.40724 -2.80112 -3.38735
18 1 8.61765 11.772 2.11343 -3.96223 -1.46561 5.75949
19 1 6.45319 11.5929 4.17975 2.07623 -3.25217 -6.37335
20 1 8.44783 9.77096 4.21234 0.576065 -3.55106 3.60363
21 1 10.671 9.75625 2.20514 -1.93205 -0.161756 3.31181
22 1 12.6605 11.5686 2.15616 -1.05309 3.852 -0.00404304
23 1 10.598 11.7481 4.16348 -3.51976 0.699182 0.156372
24 1 12.7074 9.61914 4.20084 2.07292 -3.24952 -0.0919122
25 1 14.567 9.50545 2.04454 -4.54739 1.516 2.74179
26 1 0.475368 11.7208 2.18571 -1.4898 0.500321 -2.83507
27 1 14.7295 11.6427 4.08276 0.795011 3.20644 -0.776203
28 1 0.505771 9.67407 4.09026 -0.813002 1.54338 4.38304
29 1 2.51645 9.63766 1.99524 -1.47416 -0.688656 0.710475
30 1 4.44396 11.699 2.055 4.23302 -0.395738 -0.0690312
31 1 2.68427 11.4072 4.18309 -0.535469 -0.369018 -0.252133
32 1 4.63608 9.50417 4.06263 0.750677 1.51974 0.715363
33 1 6.46097 13.5344 2.10321 -1.10174 -1.51143 1.11903
34 1 8.38486 15.4621 2.09239 -1.17579 -4.16869 2.50729
35 1 6.34046 15.6991 4.03929 0.786397 -5.85292 -3.28336
36 1 8.35183 13.6468 4.13946 -4.34511 0.642206 1.34588
37 1 10.723 13.4412 2.08695 2.68925 -4.42898 -6.1006
38 1 12.5871 15.7 2.20195 -1.9711 1.82702 -2.95966
39 1 10.4109 15.664 3.97153 -2.41946 -4.34473 3.79604
40 1 12.6212 13.6866 4.12364 5.68419 -1.25874 3.33052
41 1 14.3375 13.6605 2.05116 -1.15841 -2.9268 -0.56614
42 1 0.541876 15.7634 1.92576 -2.4732 3.09562 -3.49667
43 1 14.5845 15.5603 4.26657 3.49607 -1.71705 -1.98064
44 1 0.453898 13.7732 3.98057 3.53158 -4.53001 3.56532
45 1 2.50624 13.5923 2.0999 0.937708 2.22976 -2.24453
46 1 4.5626 15.7017 2.18125 -3.89198 -1.8888 2.10734
47 1 2.37908 15.4205 4.11785 1.58279 -0.41794 -1.11088
48 1 4.52386 13.5796 4.02866 1.09925 -5.01827 -0.0436844
49 1 6.59942 1.53157 2.1525 3.16962 1.34314 0.702653
50 1 8.64839 3.42342 2.16167 3.21816 -0.796169 5.84285
51 1 6.47627 3.33629 4.25228 -3.45594 -1.22332 1.42369
52 1 8.57415 1.39434 4.12512 3.72454 -0.837904 -6.11928
53 1 10.6104 1.44112 2.00433 3.87006 -0.811851 6.63614
54 1 12.5549 3.55466 2.0323 4.44944 0.0445389 -0.203503
55 1 10.674 3.62439 4.09061 4.90006 0.236692 -0.532659
56 1 12.5333 1.46077 4.19094 6.14172 6.88591 4.02471
57 1 14.4373 1.60095 2.09653 -1.33068 1.47678 -4.10836
58 1 0.47211 3.53535 2.18748 4.56668 -5.06839 -2.33078
59 1 14.581 3.49895 4.0622 -6.77371 1.60503 -1.75058
60 1 0.275202 1.54551 4.02175 -1.81275 2.59797 -0.239305
61 1 2.47432 1.51603 2.08241 -1.47666 -1.41721 -0.724663
62 1 4.59925 3.43917 2.2773 -0.967503 3.51483 1.56205
63 1 2.50034 3.52028 4.06203 1.43381 5.65997 -2.8705
64 1 4.42729 1.38998 4.22655 1.63341 0.997739 4.33521
65 1 6.49491 5.61362 6.11645 -2.84595 -0.538887 -4.23292
66 1 8.42389 7.62235 6.11524 2.58419 -0.766903 -1.8133
67 1 6.52942 7.57086 8.16105 -1.68638 -3.40624 -2.46678
68 1 8.47725 5.63722 8.13776 2.0376 -1.26954 -4.67258
69 1 10.4961 5.84091 6.12499 -2.30758 -0.182278 -1.89721
70 1 12.6516 7.76063 6.15202 2.26402 0.0174032 -5.20968
71 1 10.6313 7.60652 8.14909 -4.15749 1.90051 3.56009
72 1 12.5473 5.58607 8.04329 3.56668 -1.14339 4.29977
73 1 14.4773 5.66384 6.09771 -0.027757 -4.10775 -4.50725
74 1 0.368382 7.60462 6.21784 3.0433 -2.3479 3.75147
75 1 14.7245 7.54705 8.29502 -3.61597 0.00910771 -3.38296
76 1 0.449654 5.58175 8.39539 3.79058 4.832 5.8656
77 1 2.48688 5.53963 6.27434 -5.43789 -2.85643 -0.944923
78 1 4.49851 7.43239 6.07411 -1.81496 -6.41369 3.90265
79 1 2.46014 7.70539 8.08181 -6.62644 -1.1992 -1.93982
80 1 4.51966 5.50761 8.124 2.5663 0.587374 -0.211319
81 1 6.54298 9.62469 6.25182 0.410255 -2.49956 -0.483781
82 1 8.48641 11.7085 6.15514 4.80218 0.658488 4.66064
83 1 6.47492 11.7353 8.19797 -1.24258 1.42474 2.20977
84 1 8.45589 9.6374 8.04652 0.36895 1.97241 1.44691
85 1 10.7079 9.76249 6.05608 2.89334 0.117904 -3.33424
86 1 12.6727 11.6763 6.20954 -0.300526 -5.88738 6.31571
87 1 10.3914 11.6106 8.19128 2.77307 -2.216 4.63115
88 1 12.6507 9.62585 8.11234 3.83164 -1.64721 -7.53178
89 1 14.6587 9.59638 6.04732 3.90844 -0.405607 -1.08797
90 1 0.573559 11.502 6.08415 0.373506 -2.19693 6.02279
91 1 14.624 11.7028 8.343 3.44068 0.913895 -1.46277
92 1 0.401661 9.60716 8.2005 0.736495 -1.30068 -1.41642
93 1 2.72149 9.55597 6.17309 -0.663383 2.6158 -1.52574
94 1 4.56551 11.694 6.14387 3.38974 -0.67672 3.39343
95 1 2.59911 11.5661 8.16511 -4.40632 -5.62582 6.6335
96 1 4.46489 9.62197 8.2105 0.667488 -1.64831 2.46626
97 1 6.56105 13.695 6.18281 -1.70713 -6.94274 2.17085
98 1 8.67725 15.7081 6.09378 4.94288 0.316131 -1.03656
99 1 6.69875 15.677 8.16236 -8.29051 3.03466 -1.42174
100 1 8.69394 13.7794 7.99656 0.0948977 -2.50796 -3.9056
101 1 10.6227 13.7935 6.1669 10.0886 0.990034 -5.09402
102 1 12.567 15.692 6.26575 -1.4623 5.51905 -3.93495
103 1 10.6362 15.8615 8.18768 1.37819 -1.72629 -0.581786
104 1 12.581 13.7275 8.24569 0.151659 0.596773 2.95153
105 1 14.6823 13.5934 6.13459 1.66595 -2.37342 3.59528
106 1 0.30643 15.6319 6.10706 -0.541397 0.599779 -4.2449
107 1 14.5565 15.746 8.1977 2.1316 0.336749 -2.63303
108 1 0.483604 13.4926 8.11796 4.56168 -1.20251 -6.94883
109 1 2.29814 13.5437 6.19101 -2.01507 0.91896 -4.23332
110 1 4.53583 15.5483 6.21996 3.9426 5.25042 -3.16315
111 1 2.40311 15.6148 8.12676 -1.86765 -5.26884 -0.573331
112 1 4.47207 13.6156 8.18234 4.97453 1.05923 -1.48238
113 1 6.61681 1.39587 6.09471 -0.878331 -1.86108 0.054061
114 1 8.61188 3.52832 6.03244 -3.16147 4.9532 -2.93288
115 1 6.42534 3.4629 8.06049 -1.10587 -1.92194 -0.288122
116 1 8.63381 1.61464 8.05769 -4.73939 -2.2772 -3.09124
117 1 10.6617 1.49114 6.02525 1.35717 -2.04057 -0.913094
118 1 12.6815 3.59908 6.08989 -0.488541 1.89495 -2.18641
119 1 10.5304 3.63079 8.23742 -1.22617 1.55046 -1.4216
120 1 12.5427 1.51243 8.05225 -2.95317 0.0463714 -1.36748
121 1 14.6432 1.5836 6.16582 -1.58159 -2.46938 1.74515
122 1 0.589755 3.52423 6.04514 0.604025 1.57343 -0.748067
123 1 14.5721 3.63318 8.13973 -0.109198 0.0521745 1.1037
124 1 0.501609 1.4641 8.16006 -0.577405 3.32921 5.18781
125 1 2.44238 1.31354 6.04789 1.52836 -1.33779 -0.295018
126 1 4.32318 3.41398 6.09607 0.860676 1.18339 -1.48552
127 1 2.57535 3.49047 8.1566 4.13181 1.1032 -2.18242
128 1 4.52479 1.43062 8.01688 1.59553 -4.21974 -2.07196
129 1 6.65384 5.54955 10.2077 0.481368 -2.80055 0.187153
130 1 8.63995 7.62265 10.2708 -0.940991 -0.936872 -0.388468
131 1 6.56034 7.70952 12.2949 -1.64023 -3.32965 -1.8942
132 1 8.56586 5.44672 12.1805 -7.11002 1.80191 2.78724
133 1 10.5278 5.70973 10.2047 1.11351 -2.22205 -4.9997
134 1 12.5557 7.44333 10.2166 -4.45129 2.894 0.355639
135 1 10.5958 7.60665 12.2272 4.11659 -0.766168 3.13562
136 1 12.6729 5.52331 12.2475 4.3188 -3.00143 0.245442
137 1 14.6036 5.56752 10.2096 2.03079 -0.299178 -0.524824
138 1 0.518829 7.61585 10.2879 1.84958 2.23067 -3.00968
139 1 14.5681 7.6154 12.2239 -1.96439 2.45371 -3.55525
140 1 0.542142 5.62734 12.1616 2.27289 2.96146 3.29167
141 1 2.6457 5.66824 10.0787 3.72566 -3.26533 -1.30602
142 1 4.59287 7.48262 10.2322 0.731743 1.09281 -1.30877
143 1 2.63741 7.55243 12.1788 0.929164 3.50171 -0.596591
144 1 4.56327 5.59233 12.2784 -2.55512 -4.89355 3.44625
145 1 6.65918 9.71881 10.1343 -0.269296 -2.04403 -4.36491
146 1 8.6661 11.6628 10.2352 2.53146 -2.34673 -4.17285
147 1 6.53961 11.5813 12.1352 -0.975283 -0.807607 0.0594902
148 1 8.69297 9.70675 12.1524 -1.19107 -1.44966 -2.20966
149 1 10.6811 9.57892 10.1445 -0.475187 1.0811 1.12376
150 1 12.6109 11.6794 10.1714 -2.91799 0.109085 2.98772
151 1 10.6534 11.5959 12.2876 -1.52657 1.273 -1.0275
152 1 12.577 9.58278 12.1435 -4.77668 0.717016 -8.66913
153 1 14.6378 9.5582 10.2646 -0.34991 4.48834 -1.56009
154 1 0.372468 11.6643 10.2382 -1.40354 2.49195 -2.78853
155 1 14.5134 11.5804 12.217 0.485763 3.89029 -0.0742978
156 1 0.429426 9.67347 12.2352 1.02781 0.308048 4.07325
157 1 2.50236 9.7105 10.2724 0.674881 -5.46442 -0.76888
158 1 4.38905 11.8173 10.1793 1.04907 -1.13694 -7.32771
159 1 2.52425 11.873 12.0772 2.30635 1.90612 -4.28621
160 1 4.5054 9.69939 12.3379 5.40016 -2.72947 1.77707
161 1 6.66124 13.5821 10.2503 2.26869 0.283566 4.84543
162 1 8.5013 15.6516 10.1744 -4.90105 -4.44339 -2.07995
163 1 6.62126 15.6583 12.2365 -3.05315 3.00745 1.32678
164 1 8.8255 13.6825 12.4014 0.856866 -1.28645 -2.12724
165 1 10.6001 13.6893 10.2599 -5.27476 2.79242 0.659754
166 1 12.5369 15.9433 10.2595 3.55535 2.26488 3.00565
167 1 10.6242 15.8725 12.2506 -2.08245 -4.99757 -0.309936
168 1 12.5145 13.6455 12.385 5.21896 -2.61782 -0.300826
169 1 14.476 13.7483 10.1821 -0.992012 0.116538 -0.763494
170 1 0.480956 15.7445 10.1435 3.09255 -1.19211 -1.46769
171 1 14.9294 15.7392 12.2015 2.08308 1.64259 3.87962
172 1 0.364682 13.7206 12.2703 1.22088 -1.07217 -3.70371
173 1 2.49199 13.8056 10.1328 3.76376 -0.231258 0.0891389
174 1 4.65966 15.668 9.99836 -4.35601 5.3251 -0.849539
175 1 2.58495 15.5687 12.1823 -3.09323 -5.89635 1.8922
176 1 4.59732 13.6591 12.1774 -2.52902 -1.1503 -3.8484
177 1 6.48625 1.49255 10.1344 -2.19259 -4.09345 1.44382
178 1 8.30154 3.43435 10.1566 -4.59475 -2.91703 1.81174
179 1 6.52064 3.58104 12.3617 -1.90578 -0.99379 1.86372
180 1 8.54284 1.58998 12.1805 -2.98031 -1.42984 -1.60651
181 1 10.5417 1.65526 10.2186 -0.198508 2.18632 3.78689
182 1 12.5833 3.70795 10.1987 -3.98751 -0.103728 -4.78959
183 1 10.767 3.60499 12.1782 -0.734831 -1.55238 -0.45302
184 1 12.7049 1.60452 12.2278 1.26237 6.83021 0.501591
185 1 14.4897 1.72921 10.1766 4.58082 0.415449 1.68813
186 1 0.631541 3.56857 10.0975 5.05992 0.539204 -2.34419
187 1 14.6635 3.39746 12.2356 -0.152641 0.0757493 0.632011
188 1 0.647768 1.58715 12.0617 -1.83958 2.42691 -0.857751
189 1 2.59085 1.3838 10.0338 -4.86337 -0.673555 0.776442
190 1 4.64252 3.41582 10.2533 11.255 1.69909 -0.108804
191 1 2.48927 3.47032 12.0929 -1.46248 -0.748734 1.64696
192 1 4.39425 1.41407 12.3392 5.4775 1.90003 -3.55107
193 1 6.56475 5.52574 14.3396 -0.462039 3.03458 1.68648
194 1 8.56343 7.46793 14.0418 -3.99239 -0.937085 -4.03444
195 1 6.74056 7.58427 0.146452 3.91888 0.724091 -1.52471
196 1 8.72181 5.57755 0.10429 -0.462797 3.9681 -4.18449
197 1 10.5397 5.50525 14.2014 -0.23886 -0.87839 -0.952238
198 1 12.7223 7.43937 14.0617 4.5821 -1.73179 2.20763
199 1 10.5522 7.67852 16.1777 -5.36798 -0.571121 2.5261
200 1 12.6381 5.71675 0.0866888 1.10151 0.669454 2.94462
201 1 14.9243 5.47537 14.152 -3.60324 -1.01917 1.76558
202 1 0.474014 7.43493 14.2779 -0.774406 1.73067 3.93969
203 1 14.7079 7.43448 16.0729 2.07824 -3.73741 0.612777
204 1 0.646946 5.4111 0.0563112 -1.66171 -0.329636 1.00759
205 1 2.46415 5.43792 14.1482 -0.220672 -1.55972 -2.08059
206 1 4.4899 7.55209 14.2772 0.492033 -0.219369 -0.344433
207 1 2.56482 7.59231 16.1693 -1.77096 -6.50817 0.345768
208 1 4.53618 5.46554 0.165087 -0.221653 -1.3051 -0.499966
209 1 6.56675 9.60942 14.2852 -6.9387 0.215975 -3.62338
210 1 8.54798 11.5298 14.1496 0.3756 -4.28424 -0.861379
211 1 6.55939 11.5834 0.0833985 -0.387715 -0.181664 -7.32272
212 1 8.54924 9.6117 0.114926 -0.654334 -1.541 0.783217
213 1 10.5643 9.51869 14.1479 1.95307 0.962224 -0.917383
214 1 12.7091 11.5312 14.3205 -4.39155 0.247823 -1.3182
215 1 10.6065 11.4901 16.1275 -5.14047 4.20238 -3.03005
216 1 12.6276 9.48069 16.1856 3.51807 0.0567882 3.57064
217 1 14.6902 9.63448 14.2246 -4.4531 -2.50164 -2.79432
218 1 0.475655 11.6584 14.2637 0.792755 -0.656193 1.47405
219 1 14.5872 11.6004 16.1429 1.01961 3.19726 2.47887
220 1 0.513561 9.64706 0.148472 -0.789237 7.89572 -3.26837
221 1 2.43187 9.5936 14.2201 -0.779132 -0.769979 1.58615
222 1 4.56316 11.7429 14.2511 0.793966 8.15054 2.97959
223 1 2.43539 11.6083 0.127725 -3.37343 1.04962 0.856303
224 1 4.56164 9.60277 0.080615 1.04554 -1.41928 -7.50679
225 1 6.68997 13.6764 14.2678 3.13867 2.28348 0.270832
226 1 8.61069 15.6574 14.2492 1.29382 -3.75108 1.70777
227 1 6.46678 15.8005 16.1281 -6.4329 -3.17098 -5.52202
228 1 8.55597 13.3374 16.1164 -1.95212 2.87609 3.70916
229 1 10.7085 13.5356 14.2282 2.42695 0.499314 1.66873
230 1 12.5782 15.6958 14.1518 1.31748 3.88048 -3.69685
231 1 10.4423 15.3952 0.171282 -3.40634 -0.513031 -0.218016
232 1 12.5193 13.5485 16.1863 1.83288 1.1092 3.43687
233 1 14.6844 13.7551 14.2244 -4.2264 0.770102 -0.692834
234 1 0.594345 15.8286 14.3673 -1.61159 -4.04558 3.98547
235 1 14.6262 15.7763 0.204506 -5.34062 -2.80333 -4.4668
236 1 0.395892 13.5858 0.160182 -1.48223 2.09659 3.24217
237 1 2.45338 13.6546 14.2535 -1.6612 -1.79569 4.95283
238 1 4.63986 15.6732 14.1654 0.406614 0.972533 -1.40303
239 1 2.58385 15.7634 0.0154595 3.46398 3.33968 -3.7103
240 1 4.59777 13.7557 0.28105 -2.96821 1.37148 -2.74962
241 1 6.7486 1.44055 14.2326 -5.89148 -2.00755 4.51121
242 1 8.54886 3.55353 14.1033 -3.78766 -3.74493 -2.63838
243 1 6.63523 3.52238 0.140146 1.76239 -5.01179 4.33487
244 1 8.58224 1.40342 16.2049 3.80403 1.28487 5.57739
245 1 10.4713 1.53695 14.238 0.226121 3.20681 -1.90944
246 1 12.5692 3.68423 14.2452 6.34971 -0.937567 3.58049
247 1 10.5712 3.56464 16.1463 -0.190969 -8.49983 -0.322533
248 1 12.5343 1.4882 -0.016381 -1.7017 -2.32396 -5.19197
249 1 14.5452 1.35695 14.3239 -1.62671 -4.56061 -2.62287
250 1 0.505238 3.34338 14.351 -3.9373 4.06277 3.17842
251 1 14.5608 3.59207 0.169796 -2.59403 -2.31001 5.16866
252 1 0.403423 1.50418 0.188205 -0.384138 -0.900418 -0.310268
253 1 2.56172 1.65564 14.3257 -0.184877 3.27369 -2.2832
254 1 4.55502 3.63296 14.2883 1.84975 -0.375323 -1.46706
255 1 2.54324 3.45487 0.184904 8.28494 0.435751 3.43654
256 1 4.63277 1.56177 0.0801663 2.38222 0.0556331 -0.00873221
