ITEM: TIMESTEP
92000000
ITEM: NUMBER OF ATOMS
256
ITEM: BOX BOUNDS pp pp pp
0.0000000000000000e+00 1.6184000000000001e+01
0.0000000000000000e+00 1.6184000000000001e+01
0.0000000000000000e+00 1.6184000000000001e+01
ITEM: ATOMS id type x y z vx vy vz
1 1 14.3319 10.7306 8.86349 -1.60648 -1.09507 1.30861
2 1 0.226802 12.7428 8.74034 -3.001 -3.67446 1.6028
3 1 14.3723 12.8114 10.8868 2.99352 -1.62206 3.08058
4 1 0.168532 10.5313 10.9307 -2.53195 1.08038 0.0729121
5 1 2.08685 10.7723 8.82772 -4.34752 -2.58395 1.49456
6 1 4.18344 12.8935 8.82511 3.61248 2.82748 -4.38892
7 1 2.1999 12.753 10.8705 -4.46482 -0.0847029 0.483017
8 1 4.14862 10.6846 10.8156 2.32663 1.85847 -7.26621
9 1 6.11654 10.7634 8.76368 0.895767 -0.385209 -0.826675
10 1 8.1805 12.5903 8.71939 4.95596 -0.452896 -1.02045
11 1 6.11108 12.7481 10.8629 2.85177 3.57977 -5.3529
12 1 8.18642 10.5685 10.8571 2.50352 -9.00027 -0.604315
13 1 10.1859 10.6753 8.63987 -2.2639 -0.538733 0.626517
14 1 12.4388 12.7052 8.69608 -2.17867 1.16911 -2.6612
15 1 10.1881 12.7333 10.7724 5.89498 2.55162 5.77463
16 1 12.3354 10.7753 10.7608 -1.91649 -1.6488 -0.279686
17 1 14.5213 14.7045 8.91893 -3.74093 -1.46595 -6.38834
18 1 0.326907 0.663927 8.81792 3.46579 -2.1926 1.64731
19 1 14.3133 0.608901 10.6841 4.34477 2.28258 0.912652
20 1 0.140922 14.8133 10.857 4.12569 0.353021 1.06131
21 1 2.18497 14.7225 8.91819 1.81934 3.55344 5.92999
22 1 4.08164 0.709408 8.90882 1.69391 -3.78112 -4.0257
23 1 2.1777 0.745668 10.8635 2.25597 4.09891 1.00615
24 1 4.28837 14.8762 10.8584 0.110762 -2.48634 -6.45468
25 1 6.07724 14.9129 8.75488 2.63319 0.696792 3.12466
26 1 8.24268 0.603376 8.7718 3.27296 3.20869 -5.50506
27 1 6.2909 0.71044 10.9416 -1.38594 -8.37647 -0.524617
28 1 8.1065 14.7486 10.7765 -4.10289 -1.38771 6.06504
29 1 10.1475 14.6195 8.83523 2.36555 -4.31947 -1.33262
30 1 12.2826 0.569446 8.94766 0.664181 -1.55814 -2.76402
31 1 10.1377 0.621625 10.8665 1.45787 -0.858701 4.71426
32 1 12.2445 14.6011 10.7225 -1.94154 2.6838 -0.793716
33 1 14.1246 2.64943 8.93992 -1.8542 -2.35191 0.483369
34 1 0.0301636 4.72793 8.80643 1.42145 -4.96198 -1.27861
35 1 14.4471 4.60279 11.0384 0.314362 -3.02963 -8.25979
36 1 0.168425 2.68747 10.9013 -4.28455 3.42885 -3.4159
37 1 2.1862 2.80811 8.85582 2.66887 1.65997 -3.06287
38 1 4.1969 4.61567 8.97034 -2.2361 -3.60451 -0.448176
39 1 2.11631 4.69648 10.9475 -4.32931 1.65027 -0.0352068
40 1 4.34303 2.77766 10.977 -0.201701 -0.971547 -7.99957
41 1 6.14767 2.54419 8.86177 -3.00716 -0.858614 0.27889
42 1 8.20631 4.66516 8.84798 -5.22514 -5.29164 -1.21706
43 1 6.18516 4.74423 10.9351 2.10569 -1.69047 -1.71089
44 1 8.22551 2.6092 10.7188 2.56434 4.11523 3.16833
45 1 10.2763 2.83046 8.83482 0.0881734 0.341725 5.35247
46 1 12.1887 4.53996 8.79502 1.36242 -1.58739 -3.05553
47 1 10.1864 4.81372 10.7925 4.9638 0.240392 -3.81578
48 1 12.0915 2.63514 10.9272 0.579106 -0.489021 4.69669
49 1 14.2085 6.50463 8.89714 -0.431577 1.42455 -5.16235
50 1 0.273083 8.50855 8.84582 -3.57806 -1.83821 -3.17717
51 1 14.2595 8.57226 10.9265 -2.19131 1.16876 0.866853
52 1 0.102068 6.75225 10.916 -2.38417 0.449017 -7.06543
53 1 2.24935 6.60556 8.74553 -2.64909 -1.64377 -0.0204717
54 1 4.15109 8.76139 8.93985 -0.212298 -4.2708 1.1034
55 1 2.13094 8.72665 10.8808 1.66253 -0.824085 0.739373
56 1 4.10352 6.85075 10.9018 3.05847 -3.47176 -4.11617
57 1 6.14455 6.72877 8.70864 0.854662 -2.43497 -2.17408
58 1 8.22143 8.71002 8.86929 -0.977372 0.754519 -3.27381
59 1 6.08924 8.67237 10.7061 -0.507292 -1.91654 4.00161
60 1 8.16611 6.69701 10.7996 0.165572 3.78821 -1.00368
61 1 10.2516 6.65737 8.73533 -4.16501 2.98851 -6.11572
62 1 12.3576 8.61135 8.74317 1.92571 2.06657 -0.0350514
63 1 10.4079 8.67077 10.8582 -1.8018 1.43136 4.28003
64 1 12.306 6.56758 10.8157 5.79482 1.82894 -5.21736
65 1 14.3155 10.8431 12.7919 1.67952 1.01672 3.26079
66 1 0.131572 12.6917 12.7338 -1.21257 1.14228 0.192211
67 1 14.3404 12.7937 14.785 -0.700457 3.50825 3.21875
68 1 0.124827 10.7328 15.0496 2.01235 5.59703 -2.59951
69 1 2.10774 10.6968 12.8937 0.606842 -8.09846 1.89125
70 1 4.13107 12.7502 12.8016 2.93807 5.83029 3.09956
71 1 2.08608 12.8581 14.8605 7.39854 -0.463518 5.16452
72 1 4.21116 10.6723 14.8096 3.6768 -0.859102 -3.42595
73 1 6.16616 10.694 12.7738 3.3077 2.19236 -3.33555
74 1 8.21308 12.7892 12.8729 0.591129 0.790805 -1.57972
75 1 6.17427 12.7367 14.9127 -2.13864 -2.05568 -2.92986
76 1 8.31434 10.7946 14.8341 3.49369 1.12674 -2.54444
77 1 10.2427 10.7598 12.8636 5.55834 1.17061 1.05475
78 1 12.2447 12.6417 12.8189 1.34959 -4.17639 4.20362
79 1 10.2362 12.6711 14.9637 3.40153 3.80392 -2.92652
80 1 12.3647 10.6432 14.8492 2.60013 -0.466295 -2.9191
81 1 14.3728 14.8952 12.8432 -2.95338 -4.85283 -4.52705
82 1 0.182103 0.736253 12.7512 1.05039 1.39928 4.65398
83 1 14.2199 0.687496 14.8453 -3.14645 1.13606 2.08412
84 1 16.1465 14.7834 14.8301 -1.26067 -1.38053 -0.331109
85 1 2.08466 14.8813 12.8509 1.31574 -0.248487 2.29243
86 1 4.20875 0.657396 12.8472 3.18726 1.26218 -3.16179
87 1 2.17043 0.548099 15.0326 -3.21781 1.71498 -1.81445
88 1 4.19364 14.9065 14.9143 -0.496192 -3.26732 -4.96806
89 1 6.26539 14.7541 12.9694 -6.25304 3.82573 -1.1517
90 1 8.23041 0.656937 12.9622 -3.39253 -0.614645 -1.01793
91 1 6.25513 0.645944 14.8774 1.09219 0.733795 -0.307965
92 1 8.3324 14.7679 14.85 3.39343 -6.82523 0.431417
93 1 10.176 14.841 12.834 -1.05553 1.1393 2.05893
94 1 12.3303 0.398096 12.7363 -3.57093 0.0787825 -0.997239
95 1 10.4385 0.531721 14.8522 -0.936131 -6.74832 3.46064
96 1 12.3163 14.7428 14.9416 -1.15985 -1.77155 -2.01545
97 1 14.282 2.48148 12.7318 3.45092 -0.846806 -3.60595
98 1 0.218799 4.67392 12.8451 2.22958 -3.99438 5.26474
99 1 14.3024 4.52768 14.9913 -1.69902 2.96393 0.480605
100 1 -0.00729543 2.48391 14.7619 -4.93691 0.466911 1.24617
101 1 2.29908 2.73832 12.9972 -2.03699 -2.52582 3.02363
102 1 4.10645 4.81676 12.8436 1.55611 -0.07643 -8.17492
103 1 2.24565 4.57758 14.9291 -2.08595 4.30426 3.07295
104 1 4.17979 2.69198 14.9191 1.83241 -2.46127 -3.14446
105 1 6.35445 2.83259 12.9103 4.68129 -4.62588 4.2021
106 1 8.17051 4.74789 12.7294 0.49817 2.57329 0.635128
107 1 6.18477 4.66295 15.1362 3.04659 1.44238 7.3981
108 1 8.20321 2.66209 14.7999 -0.593577 1.37875 9.41935
109 1 10.0097 2.66095 12.9388 2.03579 -3.8734 -1.82376
110 1 12.2009 4.63498 12.916 -3.6094 3.49655 -0.625658
111 1 10.0686 4.75574 14.9048 -2.70186 -8.01136 2.55961
112 1 12.2316 2.66282 14.912 3.80338 -5.97876 -6.60824
113 1 14.1808 6.72193 12.91 4.78224 -2.05609 -0.6139
114 1 16.1898 8.79235 13.076 2.8441 -2.22866 1.36488
115 1 14.3323 8.76309 15.0136 0.896854 -1.49932 4.95852
116 1 0.0671795 6.59487 14.7507 0.435002 1.11613 -1.88882
117 1 2.08769 6.77237 12.9188 1.77657 -0.266163 0.322814
118 1 4.24344 8.79845 12.7932 -2.22959 1.21407 0.872098
119 1 2.29355 8.77463 14.898 -4.28077 -4.79288 -4.13157
120 1 4.16406 6.81855 14.9169 4.61588 1.23868 3.91395
121 1 6.17648 6.68011 12.9067 5.51279 0.175732 0.0846025
122 1 8.26876 8.84536 12.7087 3.77866 -1.4523 2.59087
123 1 6.3209 8.71754 14.8783 4.34089 1.63421 0.00299675
124 1 8.21503 6.76059 14.8389 5.66342 4.24279 -3.77115
125 1 10.3243 6.64488 12.9675 4.79367 -4.28556 -1.04244
126 1 12.2285 8.63805 12.9345 1.51138 -0.598568 -0.0820133
127 1 10.2185 8.69497 14.93 2.11833 0.219607 -1.3052
128 1 12.3138 6.5986 14.8875 4.6239 -2.03459 -7.15667
129 1 14.2822 10.679 0.865234 -1.49981 4.18025 -0.805163
130 1 0.0183414 12.8531 0.724192 -1.15784 8.64495 -0.831172
131 1 14.3994 12.6701 2.86365 0.0419809 0.343784 -2.77211
132 1 0.147344 10.7281 2.83852 -6.3941 -3.63756 -0.406816
133 1 2.20854 10.5959 0.746916 0.717579 3.21231 -2.91387
134 1 4.06648 12.7976 0.622183 2.19346 5.8714 5.83174
135 1 2.14653 12.6672 2.76932 -8.608 2.92417 0.498091
136 1 4.41177 10.6581 2.79975 -2.62028 9.14647 4.84945
137 1 6.12203 10.6205 0.647661 0.712149 -7.54988 0.304556
138 1 8.19318 12.5513 0.798227 7.10463 0.810742 0.698623
139 1 6.13411 12.7063 2.70432 -3.75931 2.19639 4.1861
140 1 8.32418 10.6778 2.82288 1.86008 -0.661797 -4.09606
141 1 10.2694 10.6309 0.702352 -4.49464 1.7173 -0.183865
142 1 12.3861 12.6348 0.663733 0.755671 -0.171111 -0.904145
143 1 10.2718 12.7453 2.86658 2.76775 0.3417 1.46246
144 1 12.1568 10.5852 2.79584 2.05923 -4.62189 1.25559
145 1 14.3687 14.8666 0.64384 7.06515 -3.16428 -1.98934
146 1 0.110132 0.59952 0.649772 5.15056 4.17016 -4.16383
147 1 14.2936 0.556693 2.66318 -1.23702 -2.9297 -0.667422
148 1 0.304449 14.4813 2.74766 -3.57925 6.79683 -3.97643
149 1 2.16351 14.7422 0.692433 2.45187 -0.480055 0.7174
150 1 4.26074 0.558196 0.852587 -3.75096 0.969464 -0.587492
151 1 2.14141 0.590133 2.76022 4.35035 -4.19946 -3.41761
152 1 4.08844 14.7001 2.78825 1.16866 2.33941 0.382931
153 1 6.20996 14.7052 0.707048 -1.68813 -2.21814 -2.34291
154 1 8.30319 0.550232 0.661794 -5.60799 -0.0273825 -2.95023
155 1 6.32609 0.540156 2.72629 1.16101 0.894852 -2.56235
156 1 8.27899 14.635 2.77143 -2.00101 1.30126 -6.06608
157 1 10.1881 14.5944 0.679683 -1.05843 -2.61032 -2.4471
158 1 12.27 0.597183 0.656012 -2.5841 3.84092 -3.56184
159 1 10.3381 0.393498 2.7618 -2.24193 -1.7375 -2.45148
160 1 12.4085 14.7547 2.54285 2.78618 0.37842 -2.13848
161 1 14.4499 2.58879 0.707272 -1.067 -4.72752 -5.29327
162 1 0.195191 4.59754 0.7463 0.91283 5.52981 -0.597818
163 1 14.2846 4.52654 2.79472 -2.46232 -0.0465946 -0.744855
164 1 0.179207 2.41446 2.81982 1.36657 2.84752 -2.40516
165 1 2.11742 2.6552 0.819111 -0.558797 -0.306019 2.09969
166 1 4.16834 4.56605 0.788907 0.806206 0.0721761 1.91331
167 1 2.11034 4.5173 2.73852 2.39976 -1.17833 -4.44826
168 1 4.30976 2.48242 2.70673 -1.72653 1.34854 -2.72487
169 1 6.29923 2.62927 0.738689 1.87887 6.53292 -0.923338
170 1 8.26042 4.70217 0.871301 -1.68419 -3.63188 -1.51502
171 1 6.25861 4.54744 2.87997 -4.17799 -2.01794 5.33044
172 1 8.12216 2.71 2.7501 -1.54501 -2.69461 1.1535
173 1 10.1405 2.72643 0.636352 -1.89955 -1.40114 4.30896
174 1 12.1468 4.58275 0.736562 4.52043 -1.72322 -2.00828
175 1 10.3382 4.51288 2.80864 -1.60158 -0.596965 2.17595
176 1 12.2193 2.47201 2.65601 -3.71953 -2.79379 1.46233
177 1 14.3547 6.57592 0.717908 -5.82331 -1.4942 3.72428
178 1 16.1837 8.73468 0.709433 0.771307 -3.47046 0.71895
179 1 14.1898 8.74434 2.83699 4.06466 -1.42516 1.74237
180 1 0.103926 6.62548 2.55384 0.857133 -1.27006 1.48998
181 1 2.16785 6.817 0.454031 -1.73315 0.789237 -2.17912
182 1 4.15221 8.73661 0.743359 0.346945 -4.03703 2.68195
183 1 2.22154 8.54842 2.54067 2.4181 0.444195 -2.73221
184 1 4.07549 6.52514 2.67011 3.58212 5.24849 1.89959
185 1 6.11203 6.61936 0.822176 -0.499209 3.63849 4.59387
186 1 8.21396 8.67912 0.820471 0.686713 2.29441 1.80615
187 1 6.18183 8.63159 2.66729 6.38955 -4.49954 1.33875
188 1 8.42645 6.59519 2.8189 -2.11319 -4.56407 0.112242
189 1 10.2413 6.64522 0.625332 -2.32452 0.481435 -2.22571
190 1 12.2962 8.5291 0.780193 2.42763 0.234153 2.03906
191 1 10.379 8.57616 2.6887 -1.58619 -3.72948 1.75864
192 1 12.1721 6.54998 2.66522 0.208892 0.517982 -6.07349
193 1 14.3742 10.7242 4.8195 -4.16726 5.3693 -0.241006
194 1 0.214549 12.8487 4.80918 -4.89628 0.240233 0.676346
195 1 14.4161 12.6392 6.84154 1.935 3.83702 -2.87861
196 1 0.277852 10.535 6.74936 0.774845 -3.51863 -1.26386
197 1 2.10109 10.7502 4.67591 4.12816 -2.64012 0.785364
198 1 4.34816 12.6431 4.72292 -3.60174 -5.41192 2.71013
199 1 2.17183 12.7483 6.69679 -1.68941 -0.859259 0.272988
200 1 4.09784 10.7288 6.8406 0.50481 0.0898859 3.18723
201 1 6.28184 10.5925 4.7328 2.07218 -4.72587 -3.12254
202 1 8.22368 12.7341 4.66376 -0.619291 -0.828498 3.99779
203 1 6.18586 12.6894 6.72246 0.181263 -4.0252 -4.08182
204 1 8.22673 10.6068 6.5937 0.525208 -0.940902 2.98978
205 1 10.4024 10.7248 4.79621 -5.58734 3.66269 3.24315
206 1 12.2558 12.713 4.95071 0.682234 -2.44611 -1.38783
207 1 10.2785 12.6435 6.8366 1.32823 -1.07421 -5.24482
208 1 12.3408 10.6023 6.82202 0.767216 -8.18226 1.20426
209 1 14.1939 14.7781 4.81278 0.586642 0.481251 0.207004
210 1 0.180247 0.451616 4.77718 -3.47866 4.54578 -5.30871
211 1 14.2814 0.671899 6.98507 -6.31398 5.86327 1.00841
212 1 16.1831 14.7722 6.78336 -0.0425768 7.12533 -2.68058
213 1 2.14649 14.8227 4.84846 2.70585 -0.34307 -0.696544
214 1 4.28903 0.614375 4.60658 6.22001 -1.10767 2.7905
215 1 2.2178 0.434836 6.84114 2.61012 0.8646 -5.13388
216 1 4.31943 14.7647 6.76371 1.61662 -4.45268 -2.01535
217 1 6.18183 14.7606 4.69975 3.76706 -0.014041 -2.22485
218 1 8.28772 0.550463 4.76534 -1.11497 -1.21802 7.21713
219 1 6.18143 0.67738 6.82331 3.23954 -1.35952 -0.514405
220 1 8.07291 14.6659 6.88256 -0.264128 -4.82031 -3.80486
221 1 10.2007 14.7538 4.85373 0.620683 1.02788 4.61762
222 1 12.2358 0.439247 4.92801 -4.63226 -5.61069 4.92571
223 1 10.2582 0.425323 6.87366 1.92717 -0.145946 -0.435387
224 1 12.2686 14.767 6.94709 3.16314 5.16064 0.55328
225 1 14.1444 2.49026 4.59832 -3.80326 0.78419 0.668298
226 1 0.0381173 4.494 4.89245 1.88515 -2.99997 5.96257
227 1 14.0175 4.32436 6.75584 -4.30504 4.46846 -3.29695
228 1 0.167931 2.4427 6.86243 0.963212 -4.2842 1.35788
229 1 2.1894 2.56259 4.85491 0.0947156 0.951674 -0.857293
230 1 4.10496 4.64107 4.7016 -0.655624 0.698943 -2.09203
231 1 2.24205 4.77155 6.77673 -5.55701 -1.84219 -9.55516
232 1 4.14409 2.82913 6.68096 1.38469 0.756829 2.61466
233 1 6.21652 2.50066 4.87449 2.49811 3.38711 1.9847
234 1 8.12144 4.62659 4.73412 2.17989 0.394055 0.137807
235 1 6.33692 4.75465 6.66971 3.48263 7.09372 4.2234
236 1 8.2315 2.66275 6.80963 2.36116 0.481643 4.07582
237 1 10.2363 2.38815 4.76809 -3.24776 0.949236 2.08821
238 1 12.2658 4.43513 4.78847 0.188663 -2.80744 0.702639
239 1 10.1557 4.779 6.64317 -2.26145 -0.59568 1.89852
240 1 12.1219 2.49546 6.87101 -1.44173 -3.48258 -1.13734
241 1 14.3686 6.5183 4.72931 -4.87915 3.15511 -0.539029
242 1 16.1568 8.55203 4.80228 -4.96381 -5.59687 -0.751973
243 1 14.2536 8.65628 6.84748 -0.0360423 4.25699 -3.89537
244 1 0.10634 6.83264 6.77619 -1.27998 0.225412 0.138028
245 1 2.00752 6.71242 4.64114 -2.11452 2.53375 -0.773832
246 1 4.07701 8.63119 4.77959 -8.91004 0.204303 -0.87869
247 1 2.21169 8.48472 6.86931 -1.77444 -2.14544 3.17178
248 1 4.40095 6.75268 6.68979 -1.02117 -3.05846 -0.37832
249 1 6.28805 6.62853 4.57424 -4.01202 -4.10587 -3.25373
250 1 8.27476 8.64402 4.7276 6.30977 -1.53767 -8.55344
251 1 6.12961 8.82677 6.83302 0.966001 1.57814 -0.649426
252 1 8.17119 6.81374 6.62252 0.349882 -1.37781 -1.33737
253 1 10.3223 6.56162 4.7342 1.47855 -4.80992 -0.217241
254 1 12.3444 8.57474 4.79643 0.430782 -1.26768 -2.2677
255 1 10.2662 8.4502 6.76968 -10.3205 -6.78289 9.5148
256 1 12.345 6.51275 6.48895 -4.63097 0.514009 1.69297
