ITEM: TIMESTEP
78000000
ITEM: NUMBER OF ATOMS
256
ITEM: BOX BOUNDS pp pp pp
0.0000000000000000e+00 1.6184000000000001e+01
0.0000000000000000e+00 1.6184000000000001e+01
0.0000000000000000e+00 1.6184000000000001e+01
ITEM: ATOMS id type x y z vx vy vz
1 1 15.7057 11.7704 5.57028 0.978336 -3.64771 -3.74055
2 1 1.5324 13.7997 5.57083 0.889531 -3.69413 -3.54648
3 1 15.7047 13.7855 7.59989 0.836103 -3.83042 -3.55076
4 1 1.55354 11.7714 7.59132 0.9841 -3.75004 -3.80248
5 1 3.56402 11.775 5.57039 0.99491 -3.75631 -3.73266
6 1 5.57634 13.7929 5.58014 0.937882 -3.88202 -3.50285
7 1 3.56595 13.7952 7.59513 0.902801 -3.84332 -3.55694
8 1 5.59768 11.7612 7.59725 0.987036 -3.97421 -3.70519
9 1 7.61083 11.7574 5.58485 1.00968 -4.00588 -3.62836
10 1 9.62689 13.7752 5.58779 0.876784 -4.00144 -3.37225
11 1 7.60955 13.778 7.60701 0.883177 -4.05851 -3.40428
12 1 9.64037 11.7446 7.60724 0.955006 -4.16351 -3.59442
13 1 11.6601 11.7527 5.58337 0.962803 -4.01472 -3.61482
14 1 13.6749 13.7793 5.57885 0.827033 -3.78311 -3.46305
15 1 11.6557 13.7668 7.60868 0.799579 -4.05131 -3.41943
16 1 13.6889 11.7529 7.60208 0.97505 -3.91769 -3.74084
17 1 15.6979 15.8113 5.57519 0.865145 -3.72235 -3.27894
18 1 1.54336 1.6589 5.57157 1.03988 -3.81642 -3.22686
19 1 15.7159 1.64789 7.60259 1.05589 -3.88557 -3.14098
20 1 1.54275 15.8184 7.59776 0.904155 -3.8367 -3.30738
21 1 3.55381 15.8224 5.57367 0.931334 -3.80936 -3.35389
22 1 5.59204 1.65178 5.58075 1.03555 -3.885 -3.17202
23 1 3.57577 1.65848 7.59784 1.0653 -3.88577 -3.21728
24 1 5.58847 15.8133 7.60289 0.94073 -3.93772 -3.28607
25 1 7.60556 15.8056 5.58891 0.913026 -3.93257 -3.19028
26 1 9.6498 1.63317 5.59201 0.989097 -3.97129 -3.0604
27 1 7.62759 1.64046 7.61075 1.01966 -3.97761 -3.05602
28 1 9.63606 15.7919 7.61305 0.848152 -4.05272 -3.1452
29 1 11.6574 15.7937 5.58645 0.823058 -3.94843 -3.15742
30 1 13.6931 1.63751 5.58178 0.992931 -3.87092 -3.09858
31 1 11.6751 1.62786 7.61325 0.998667 -3.99783 -3.06064
32 1 13.6826 15.7951 7.60704 0.833231 -3.92341 -3.20839
33 1 15.7249 3.67399 5.57284 1.2249 -3.81798 -3.24492
34 1 1.56813 5.70505 5.56808 1.26569 -3.79419 -3.52829
35 1 15.7423 5.69784 7.59575 1.38185 -3.86519 -3.48921
36 1 1.56855 3.68093 7.59624 1.22343 -3.85793 -3.30204
37 1 3.58027 3.67932 5.57362 1.16088 -3.86684 -3.31131
38 1 5.61805 5.69099 5.57841 1.20165 -3.91486 -3.45496
39 1 3.60283 5.70015 7.59356 1.25864 -3.84685 -3.51286
40 1 5.61867 3.67069 7.60124 1.16755 -3.89954 -3.19888
41 1 7.63854 3.66097 5.58725 1.17475 -3.95289 -3.16801
42 1 9.67553 5.67708 5.58855 1.28318 -4.05873 -3.34786
43 1 7.65535 5.67962 7.6053 1.24456 -4.0013 -3.36812
44 1 9.67139 3.65249 7.61319 1.1833 -4.03818 -3.12577
45 1 11.6904 3.65464 5.58761 1.2188 -4.01158 -3.15993
46 1 13.7174 5.6886 5.57779 1.35342 -3.88672 -3.37307
47 1 11.702 5.67589 7.60996 1.3597 -4.037 -3.36161
48 1 13.7134 3.6607 7.60722 1.2624 -3.95137 -3.17629
49 1 15.733 7.72502 5.5671 1.29579 -3.72077 -3.69464
50 1 1.55783 9.75338 5.56441 1.11772 -3.67829 -3.85066
51 1 15.7283 9.74314 7.592 1.18677 -3.79387 -3.86486
52 1 1.57784 7.72587 7.58867 1.28388 -3.76788 -3.78698
53 1 3.59043 7.72408 5.56959 1.17162 -3.80902 -3.76626
54 1 5.60317 9.73928 5.57613 1.09399 -3.915 -3.79253
55 1 3.59 9.74456 7.58991 1.12404 -3.8172 -3.86544
56 1 5.62585 7.7106 7.59666 1.22253 -3.94026 -3.7233
57 1 7.64422 7.7044 5.58354 1.20208 -4.02531 -3.61457
58 1 9.65368 9.7268 5.58666 1.1517 -4.10944 -3.65786
59 1 7.63474 9.72474 7.6025 1.14203 -4.11168 -3.77134
60 1 9.6737 7.69644 7.60794 1.29467 -4.13738 -3.62062
61 1 11.6938 7.70497 5.58472 1.30332 -4.05301 -3.53824
62 1 13.7002 9.73809 5.57594 1.17101 -3.82249 -3.73536
63 1 11.68 9.72238 7.60591 1.19818 -4.08241 -3.72352
64 1 13.718 7.70949 7.60046 1.37412 -3.93072 -3.63257
65 1 15.7191 11.7551 9.61674 1.01273 -3.86275 -3.75932
66 1 1.55213 13.7864 9.61672 0.923517 -3.84983 -3.54703
67 1 15.7105 13.7696 11.6367 1.00035 -3.84235 -3.55506
68 1 1.56571 11.7537 11.6328 1.10427 -3.68957 -3.71537
69 1 3.58583 11.7612 9.6141 1.01259 -3.83747 -3.72801
70 1 5.59617 13.7798 9.62317 0.96519 -3.9592 -3.5121
71 1 3.5787 13.7789 11.6383 1.08544 -3.76097 -3.53661
72 1 5.60732 11.7451 11.6467 1.12661 -3.88113 -3.64908
73 1 7.62292 11.7423 9.62715 1.00673 -4.09543 -3.64894
74 1 9.63274 13.7608 9.63191 0.898091 -4.11208 -3.40479
75 1 7.61234 13.7626 11.6548 1.05904 -4.04017 -3.43993
76 1 9.63798 11.7305 11.6551 1.09715 -4.0372 -3.56307
77 1 11.6632 11.7359 9.62824 1.00207 -4.08077 -3.65028
78 1 13.6815 13.7654 9.62536 0.881112 -3.99487 -3.49327
79 1 11.6517 13.7543 11.6504 0.988708 -3.97627 -3.44779
80 1 13.6894 11.7398 11.6419 1.10139 -3.89272 -3.67972
81 1 15.7105 15.8009 9.6232 0.976107 -3.92009 -3.30416
82 1 1.56103 1.6527 9.61976 1.16703 -3.84541 -3.2326
83 1 15.7216 1.63682 11.6405 1.28843 -3.81624 -3.22292
84 1 1.55358 15.8031 11.6364 1.14701 -3.78715 -3.36299
85 1 3.57565 15.8135 9.61875 1.03104 -3.87599 -3.34713
86 1 5.60975 1.64624 9.62653 1.15545 -3.85142 -3.15935
87 1 3.58817 1.64657 11.6421 1.30952 -3.70632 -3.27215
88 1 5.59798 15.7998 11.6496 1.19499 -3.87335 -3.3544
89 1 7.61754 15.7957 9.63274 0.992845 -3.99866 -3.21461
90 1 9.65345 1.62578 9.63838 1.10266 -3.95799 -3.08057
91 1 7.63092 1.62957 11.6596 1.25883 -3.87101 -3.17794
92 1 9.63382 15.7801 11.6585 1.09493 -3.93761 -3.24395
93 1 11.6599 15.7823 9.6334 0.930954 -4.00027 -3.20416
94 1 13.6972 1.63019 9.6302 1.14561 -3.94516 -3.13114
95 1 11.6715 1.62011 11.6567 1.24602 -3.83347 -3.17447
96 1 13.6825 15.7838 11.6447 1.07942 -3.89696 -3.30143
97 1 15.7365 3.66879 9.62233 1.35701 -3.8732 -3.24794
98 1 1.58736 5.69831 9.61573 1.42233 -3.7688 -3.508
99 1 15.7478 5.68787 11.6389 1.55451 -3.75214 -3.45285
100 1 1.57905 3.66965 11.6388 1.40109 -3.70577 -3.32424
101 1 3.60128 3.67559 9.61984 1.28686 -3.79753 -3.2723
102 1 5.63679 5.68472 9.62374 1.34884 -3.8202 -3.43409
103 1 3.6147 5.68865 11.643 1.43286 -3.64289 -3.46305
104 1 5.62719 3.66094 11.6523 1.36599 -3.73326 -3.22821
105 1 7.64964 3.65596 9.63298 1.25943 -3.88425 -3.16344
106 1 9.68058 5.66924 9.63447 1.41004 -3.9802 -3.36804
107 1 7.65784 5.67 11.6595 1.43975 -3.85438 -3.36501
108 1 9.66825 3.64482 11.6631 1.37209 -3.81939 -3.1843
109 1 11.692 3.64775 9.63598 1.34253 -3.92393 -3.18123
110 1 13.7236 5.6811 9.62613 1.53121 -3.91948 -3.39778
111 1 11.6976 5.6693 11.6577 1.53934 -3.82039 -3.35256
112 1 13.7126 3.65395 11.6486 1.44947 -3.82603 -3.24817
113 1 15.7456 7.71416 9.61514 1.44768 -3.82607 -3.72227
114 1 1.57637 9.74011 9.61011 1.19088 -3.73774 -3.85167
115 1 15.7351 9.7289 11.6345 1.34703 -3.72456 -3.75008
116 1 1.58908 7.71196 11.6347 1.47624 -3.62524 -3.66958
117 1 3.61155 7.71459 9.61452 1.32987 -3.77173 -3.73292
118 1 5.62107 9.72652 9.61957 1.16613 -3.91504 -3.79256
119 1 3.603 9.7287 11.6382 1.2834 -3.6457 -3.73344
120 1 5.63482 7.69841 11.6505 1.41533 -3.76862 -3.62631
121 1 7.65493 7.69406 9.62781 1.33635 -3.97612 -3.61953
122 1 9.65805 9.71192 9.63058 1.20855 -4.12359 -3.68961
123 1 7.63789 9.71084 11.6553 1.29438 -3.9861 -3.67554
124 1 9.67118 7.68637 11.6603 1.48083 -3.93026 -3.53853
125 1 11.696 7.69319 9.63128 1.46601 -3.99854 -3.5906
126 1 13.7062 9.7237 9.6221 1.27284 -3.93669 -3.77901
127 1 11.6769 9.71195 11.6526 1.35541 -3.92865 -3.62468
128 1 13.7178 7.70046 11.6447 1.57126 -3.82014 -3.54679
129 1 15.7152 11.7486 13.6533 1.1997 -3.60338 -3.6844
130 1 1.54957 13.7752 13.6532 1.13624 -3.59915 -3.55213
131 1 15.6977 13.7742 15.6733 1.04299 -3.50684 -3.55273
132 1 1.54836 11.7608 15.6754 1.21533 -3.4135 -3.68617
133 1 3.58253 11.7512 13.6615 1.23343 -3.5554 -3.64058
134 1 5.59141 13.771 13.6732 1.21481 -3.79616 -3.51504
135 1 3.56084 13.7839 15.684 1.15861 -3.54915 -3.56523
136 1 5.59039 11.7521 15.7003 1.26228 -3.68917 -3.61005
137 1 7.61641 11.7354 13.6826 1.24332 -3.93734 -3.59018
138 1 9.6252 13.7534 13.6797 1.133 -3.91596 -3.42974
139 1 7.60068 13.7658 15.7068 1.1857 -3.79662 -3.47171
140 1 9.62904 11.7347 15.707 1.24819 -3.86385 -3.53209
141 1 11.6558 11.733 13.673 1.1962 -3.8527 -3.58431
142 1 13.6761 13.76 13.66 1.06605 -3.75348 -3.52056
143 1 11.645 13.757 15.6934 1.04915 -3.75384 -3.44551
144 1 13.6795 11.7456 15.683 1.17673 -3.60334 -3.6388
145 1 15.7064 15.7916 13.6543 1.1299 -3.67432 -3.39394
146 1 1.55808 1.64143 13.6558 1.29565 -3.61273 -3.34102
147 1 15.7105 1.63599 15.6752 1.21982 -3.58613 -3.32519
148 1 1.53965 15.8053 15.6743 1.11584 -3.51408 -3.42335
149 1 3.57223 15.802 13.6616 1.22534 -3.63246 -3.42946
150 1 5.60483 1.63734 13.6764 1.31568 -3.71777 -3.26419
151 1 3.57193 1.64704 15.6867 1.27465 -3.58009 -3.36409
152 1 5.58392 15.8014 15.6987 1.19569 -3.68875 -3.41684
153 1 7.61097 15.7868 13.6828 1.22576 -3.87843 -3.30895
154 1 9.64621 1.61819 13.6862 1.27162 -3.77391 -3.19991
155 1 7.62061 1.62766 15.7103 1.27344 -3.71868 -3.27242
156 1 9.62781 15.7794 15.7061 1.11336 -3.77021 -3.31133
157 1 11.6524 15.7767 13.6729 1.10551 -3.81117 -3.29435
158 1 13.6918 1.62475 13.6643 1.26238 -3.70517 -3.25307
159 1 11.6668 1.61806 15.6985 1.19445 -3.70707 -3.25719
160 1 13.6758 15.7851 15.6817 1.02235 -3.63952 -3.35733
161 1 15.7316 3.66133 13.6579 1.46887 -3.64786 -3.30903
162 1 1.5828 5.68946 13.6595 1.53834 -3.54648 -3.46549
163 1 15.7319 5.68917 15.679 1.58892 -3.5831 -3.46306
164 1 1.56131 3.66956 15.6796 1.41403 -3.5417 -3.39562
165 1 3.59685 3.66575 13.6674 1.41318 -3.58259 -3.3176
166 1 5.63049 5.67793 13.681 1.48418 -3.68806 -3.4001
167 1 3.59421 5.69092 15.6931 1.50665 -3.57967 -3.47605
168 1 5.60975 3.66055 15.704 1.41687 -3.66215 -3.31224
169 1 7.64279 3.64844 13.6879 1.41663 -3.77291 -3.24068
170 1 9.67176 5.66447 13.6897 1.54639 -3.80584 -3.34999
171 1 7.64357 5.66987 15.7154 1.54225 -3.76831 -3.38589
172 1 9.65934 3.6418 15.7126 1.44502 -3.74786 -3.26285
173 1 11.6847 3.64438 13.6801 1.46335 -3.73912 -3.2467
174 1 13.7162 5.67881 13.6679 1.61532 -3.71039 -3.38021
175 1 11.6885 5.66947 15.7045 1.61181 -3.75735 -3.35284
176 1 13.7026 3.65263 15.6874 1.44137 -3.6763 -3.30939
177 1 15.7403 7.70932 13.6568 1.57133 -3.58818 -3.59375
178 1 1.57316 9.73153 13.6545 1.36922 -3.47553 -3.70407
179 1 15.7222 9.73552 15.6765 1.39551 -3.47144 -3.65515
180 1 1.57179 7.71668 15.68 1.52268 -3.4583 -3.60535
181 1 3.60719 7.7066 13.6675 1.48684 -3.52176 -3.59984
182 1 5.61591 9.72041 13.6777 1.37626 -3.73752 -3.64719
183 1 3.58546 9.73603 15.6893 1.37211 -3.49304 -3.65448
184 1 5.61822 7.70269 15.7066 1.50113 -3.68406 -3.55853
185 1 7.6476 7.68872 13.6882 1.51605 -3.85021 -3.52007
186 1 9.64974 9.70778 13.6859 1.42456 -3.90631 -3.55066
187 1 7.62637 9.71606 15.7129 1.4236 -3.80916 -3.61132
188 1 9.66247 7.68858 15.715 1.58185 -3.85324 -3.4872
189 1 11.6877 7.69219 13.6807 1.59684 -3.79776 -3.46188
190 1 13.6998 9.72207 13.664 1.43306 -3.68852 -3.64643
191 1 11.6699 9.71663 15.701 1.43547 -3.78223 -3.55733
192 1 13.7078 7.7049 15.6886 1.59832 -3.64625 -3.49624
193 1 15.7017 11.7643 1.5151 1.09011 -3.46659 -3.66307
194 1 1.52961 13.7921 1.51555 1.01508 -3.46049 -3.55047
195 1 15.691 13.7903 3.54373 0.898768 -3.53859 -3.51224
196 1 1.5364 11.7772 3.54226 1.04891 -3.54356 -3.72068
197 1 3.56059 11.7705 1.5263 1.1675 -3.51456 -3.65784
198 1 5.57244 13.7867 1.53814 1.09574 -3.6461 -3.52488
199 1 3.5469 13.7992 3.54945 0.991563 -3.65159 -3.56337
200 1 5.58042 11.7678 3.55943 1.07346 -3.74154 -3.65973
201 1 7.60497 11.7503 1.54798 1.18191 -3.7689 -3.58919
202 1 9.62054 13.7646 1.54335 0.999679 -3.77132 -3.42114
203 1 7.59642 13.7818 3.56752 1.00229 -3.79778 -3.41971
204 1 9.63117 11.7508 3.56651 1.05794 -3.91644 -3.53642
205 1 11.6536 11.7444 1.53519 1.09361 -3.74257 -3.55204
206 1 13.6695 13.772 1.5217 0.894716 -3.60221 -3.48741
207 1 11.6478 13.7716 3.55875 0.863838 -3.82966 -3.39567
208 1 13.6788 11.7596 3.55011 1.00649 -3.66433 -3.6392
209 1 15.6943 15.8031 1.5148 0.96236 -3.55117 -3.3716
210 1 1.54014 1.65094 1.51616 1.19977 -3.60861 -3.36882
211 1 15.7046 1.647 3.54422 1.07525 -3.68854 -3.20715
212 1 1.5278 15.8191 3.54341 0.949927 -3.65157 -3.34896
213 1 3.55145 15.8162 1.52468 1.09261 -3.60463 -3.45695
214 1 5.58799 1.64515 1.53931 1.23564 -3.67957 -3.31259
215 1 3.55927 1.65719 3.55022 1.11131 -3.77346 -3.30742
216 1 5.5734 15.8141 3.56008 1.01328 -3.74327 -3.35522
217 1 7.60103 15.7961 1.54708 1.07839 -3.72317 -3.33069
218 1 9.64328 1.62237 1.54793 1.17297 -3.75079 -3.23042
219 1 7.61697 1.63839 3.56876 1.11508 -3.8002 -3.17776
220 1 9.62924 15.7933 3.56805 0.924748 -3.82575 -3.21398
221 1 11.6514 15.7833 1.53403 0.924392 -3.70281 -3.27475
222 1 13.6872 1.63008 1.52394 1.11496 -3.69507 -3.24919
223 1 11.6701 1.62761 3.56147 1.04041 -3.86332 -3.14333
224 1 13.6751 15.7977 3.55067 0.843429 -3.70375 -3.24768
225 1 15.7191 3.66713 1.51678 1.38494 -3.67256 -3.34382
226 1 1.56259 5.69948 1.52024 1.48562 -3.60893 -3.5221
227 1 15.7279 5.69855 3.54261 1.39876 -3.71394 -3.47435
228 1 1.55101 3.67868 3.54399 1.2883 -3.7608 -3.37387
229 1 3.5756 3.67428 1.52917 1.37582 -3.68258 -3.3867
230 1 5.61122 5.6865 1.54374 1.45231 -3.72948 -3.46373
231 1 3.58368 5.69986 3.55128 1.31832 -3.79294 -3.53757
232 1 5.60125 3.66875 3.56071 1.26853 -3.80693 -3.28265
233 1 7.63183 3.65262 1.55026 1.39431 -3.74383 -3.29575
234 1 9.66641 5.66885 1.55134 1.51419 -3.85903 -3.38387
235 1 7.64198 5.6793 3.56834 1.35164 -3.88262 -3.40583
236 1 9.66249 3.65095 3.56946 1.30218 -3.90019 -3.19218
237 1 11.6828 3.64648 1.54007 1.38504 -3.78113 -3.27757
238 1 13.7093 5.68371 1.52715 1.5216 -3.74976 -3.39349
239 1 11.694 5.67795 3.56307 1.43278 -3.95085 -3.3355
240 1 13.7037 3.66034 3.55226 1.30788 -3.82565 -3.2395
241 1 15.7261 7.72034 1.51674 1.45399 -3.58114 -3.59981
242 1 1.55378 9.7483 1.51675 1.27911 -3.44408 -3.7079
243 1 15.7161 9.74915 3.54124 1.15242 -3.55327 -3.73352
244 1 1.56208 7.72874 3.54139 1.26512 -3.65346 -3.69809
245 1 3.58476 7.72105 1.53073 1.40067 -3.6213 -3.65636
246 1 5.5976 9.73574 1.54185 1.29885 -3.68765 -3.67308
247 1 3.57288 9.75007 3.54948 1.1264 -3.66906 -3.76253
248 1 5.61009 7.71379 3.5606 1.235 -3.80859 -3.65489
249 1 7.63565 7.69855 1.55186 1.45258 -3.82651 -3.54748
250 1 9.64563 9.71896 1.54983 1.34064 -3.86868 -3.54879
251 1 7.62283 9.73061 3.56768 1.17818 -3.89823 -3.66346
252 1 9.66541 7.70021 3.56933 1.33102 -3.98859 -3.53175
253 1 11.6844 7.69868 1.54163 1.49293 -3.82501 -3.44451
254 1 13.6936 9.73359 1.52566 1.29132 -3.6303 -3.61045
255 1 11.6733 9.72909 3.56102 1.19709 -3.91228 -3.59204
256 1 13.709 7.71465 3.5508 1.33709 -3.78118 -3.53293
