ITEM: TIMESTEP
4000000
ITEM: NUMBER OF ATOMS
256
ITEM: BOX BOUNDS pp pp pp
0.0000000000000000e+00 1.6184000000000001e+01
0.0000000000000000e+00 1.6184000000000001e+01
0.0000000000000000e+00 1.6184000000000001e+01
ITEM: ATOMS id type x y z vx vy vz
1 1 5.6044 12.4088 8.62758 1.23088 -3.86314 -3.51639
2 1 7.6274 14.4318 8.62758 1.23087 -3.86313 -3.51639
3 1 5.6044 14.4318 10.6506 1.23087 -3.86315 -3.51638
4 1 7.6274 12.4088 10.6506 1.23087 -3.86313 -3.51641
5 1 9.6504 12.4088 8.62758 1.23086 -3.86315 -3.51639
6 1 11.6734 14.4318 8.62758 1.23087 -3.86313 -3.51639
7 1 9.6504 14.4318 10.6506 1.23087 -3.86313 -3.51638
8 1 11.6734 12.4088 10.6506 1.23086 -3.86314 -3.51639
9 1 13.6964 12.4088 8.62758 1.23086 -3.86315 -3.51639
10 1 15.7194 14.4318 8.62758 1.23087 -3.86314 -3.51639
11 1 13.6964 14.4318 10.6506 1.23088 -3.86314 -3.51638
12 1 15.7194 12.4088 10.6506 1.23088 -3.86314 -3.51639
13 1 1.5584 12.4088 8.62758 1.23086 -3.86314 -3.51639
14 1 3.5814 14.4318 8.62758 1.23088 -3.86314 -3.51638
15 1 1.5584 14.4318 10.6506 1.23086 -3.86314 -3.51639
16 1 3.5814 12.4088 10.6506 1.23087 -3.86313 -3.51638
17 1 5.6044 0.270765 8.62758 1.23088 -3.86314 -3.51639
18 1 7.6274 2.29377 8.62758 1.23086 -3.86313 -3.51639
19 1 5.6044 2.29377 10.6506 1.23087 -3.86315 -3.51638
20 1 7.6274 0.270766 10.6506 1.23087 -3.86314 -3.51638
21 1 9.6504 0.270766 8.62758 1.23087 -3.86314 -3.51639
22 1 11.6734 2.29377 8.62758 1.23087 -3.86313 -3.51639
23 1 9.6504 2.29377 10.6506 1.23087 -3.86314 -3.51638
24 1 11.6734 0.270766 10.6506 1.23087 -3.86313 -3.51639
25 1 13.6964 0.270766 8.62758 1.23088 -3.86314 -3.51639
26 1 15.7194 2.29377 8.62758 1.23087 -3.86314 -3.51638
27 1 13.6964 2.29377 10.6506 1.23087 -3.86315 -3.5164
28 1 15.7194 0.270766 10.6506 1.23087 -3.86314 -3.51639
29 1 1.5584 0.270765 8.62758 1.23087 -3.86314 -3.5164
30 1 3.5814 2.29377 8.62758 1.23088 -3.86313 -3.51639
31 1 1.5584 2.29377 10.6506 1.23087 -3.86314 -3.51639
32 1 3.5814 0.270766 10.6506 1.23088 -3.86314 -3.51638
33 1 5.6044 4.31677 8.62758 1.23087 -3.86314 -3.51638
34 1 7.6274 6.33977 8.62758 1.23087 -3.86314 -3.51638
35 1 5.6044 6.33977 10.6506 1.23087 -3.86312 -3.51638
36 1 7.6274 4.31677 10.6506 1.23088 -3.86314 -3.51639
37 1 9.6504 4.31677 8.62758 1.23087 -3.86315 -3.5164
38 1 11.6734 6.33977 8.62758 1.23087 -3.86314 -3.51639
39 1 9.6504 6.33977 10.6506 1.23087 -3.86315 -3.51638
40 1 11.6734 4.31677 10.6506 1.23087 -3.86314 -3.51639
41 1 13.6964 4.31677 8.62758 1.23088 -3.86314 -3.51639
42 1 15.7194 6.33977 8.62758 1.23087 -3.86313 -3.51638
43 1 13.6964 6.33977 10.6506 1.23087 -3.86314 -3.5164
44 1 15.7194 4.31677 10.6506 1.23088 -3.86315 -3.5164
45 1 1.5584 4.31677 8.62758 1.23086 -3.86314 -3.51638
46 1 3.5814 6.33977 8.62758 1.23087 -3.86315 -3.51639
47 1 1.5584 6.33977 10.6506 1.23088 -3.86314 -3.51639
48 1 3.5814 4.31677 10.6506 1.23086 -3.86314 -3.51639
49 1 5.6044 8.36277 8.62758 1.23088 -3.86313 -3.51638
50 1 7.6274 10.3858 8.62758 1.23088 -3.86314 -3.51638
51 1 5.6044 10.3858 10.6506 1.23087 -3.86314 -3.51639
52 1 7.6274 8.36277 10.6506 1.23088 -3.86313 -3.51639
53 1 9.6504 8.36277 8.62758 1.23086 -3.86314 -3.51638
54 1 11.6734 10.3858 8.62758 1.23086 -3.86313 -3.51639
55 1 9.6504 10.3858 10.6506 1.23086 -3.86314 -3.51638
56 1 11.6734 8.36277 10.6506 1.23087 -3.86315 -3.5164
57 1 13.6964 8.36277 8.62758 1.23087 -3.86314 -3.5164
58 1 15.7194 10.3858 8.62758 1.23086 -3.86314 -3.51639
59 1 13.6964 10.3858 10.6506 1.23087 -3.86314 -3.51638
60 1 15.7194 8.36277 10.6506 1.23085 -3.86314 -3.51638
61 1 1.5584 8.36277 8.62758 1.23087 -3.86314 -3.51638
62 1 3.5814 10.3858 8.62758 1.23087 -3.86314 -3.51639
63 1 1.5584 10.3858 10.6506 1.23087 -3.86313 -3.51639
64 1 3.5814 8.36277 10.6506 1.23086 -3.86314 -3.51639
65 1 5.6044 12.4088 12.6736 1.23087 -3.86313 -3.51638
66 1 7.6274 14.4318 12.6736 1.23087 -3.86313 -3.51639
67 1 5.6044 14.4318 14.6966 1.23087 -3.86313 -3.51638
68 1 7.6274 12.4088 14.6966 1.23087 -3.86315 -3.51639
69 1 9.6504 12.4088 12.6736 1.23089 -3.86315 -3.51638
70 1 11.6734 14.4318 12.6736 1.23087 -3.86313 -3.51638
71 1 9.6504 14.4318 14.6966 1.23087 -3.86314 -3.51638
72 1 11.6734 12.4088 14.6966 1.23088 -3.86313 -3.51639
73 1 13.6964 12.4088 12.6736 1.23086 -3.86314 -3.51639
74 1 15.7194 14.4318 12.6736 1.23086 -3.86314 -3.51639
75 1 13.6964 14.4318 14.6966 1.23088 -3.86314 -3.51639
76 1 15.7194 12.4088 14.6966 1.23087 -3.86314 -3.51639
77 1 1.5584 12.4088 12.6736 1.23087 -3.86314 -3.51639
78 1 3.5814 14.4318 12.6736 1.23087 -3.86314 -3.51638
79 1 1.5584 14.4318 14.6966 1.23087 -3.86314 -3.51638
80 1 3.5814 12.4088 14.6966 1.23087 -3.86313 -3.51639
81 1 5.6044 0.270766 12.6736 1.23087 -3.86314 -3.51639
82 1 7.6274 2.29377 12.6736 1.23089 -3.86315 -3.51639
83 1 5.6044 2.29377 14.6966 1.23087 -3.86315 -3.51638
84 1 7.6274 0.270766 14.6966 1.23087 -3.86314 -3.51639
85 1 9.6504 0.270766 12.6736 1.23086 -3.86315 -3.51639
86 1 11.6734 2.29377 12.6736 1.23088 -3.86314 -3.51639
87 1 9.6504 2.29377 14.6966 1.23087 -3.86314 -3.51639
88 1 11.6734 0.270766 14.6966 1.23088 -3.86314 -3.51638
89 1 13.6964 0.270766 12.6736 1.23087 -3.86313 -3.51639
90 1 15.7194 2.29377 12.6736 1.23087 -3.86314 -3.51638
91 1 13.6964 2.29377 14.6966 1.23087 -3.86315 -3.51638
92 1 15.7194 0.270766 14.6966 1.23086 -3.86314 -3.51639
93 1 1.5584 0.270766 12.6736 1.23087 -3.86316 -3.51639
94 1 3.5814 2.29377 12.6736 1.23087 -3.86314 -3.51639
95 1 1.5584 2.29377 14.6966 1.23087 -3.86314 -3.51638
96 1 3.5814 0.270765 14.6966 1.23086 -3.86314 -3.51638
97 1 5.6044 4.31677 12.6736 1.23087 -3.86314 -3.51638
98 1 7.6274 6.33977 12.6736 1.23088 -3.86315 -3.51639
99 1 5.6044 6.33977 14.6966 1.23087 -3.86315 -3.51638
100 1 7.6274 4.31677 14.6966 1.23087 -3.86313 -3.51639
101 1 9.6504 4.31677 12.6736 1.23088 -3.86314 -3.5164
102 1 11.6734 6.33977 12.6736 1.23087 -3.86315 -3.5164
103 1 9.6504 6.33977 14.6966 1.23088 -3.86315 -3.51639
104 1 11.6734 4.31677 14.6966 1.23087 -3.86314 -3.51639
105 1 13.6964 4.31677 12.6736 1.23086 -3.86314 -3.51639
106 1 15.7194 6.33977 12.6736 1.23088 -3.86314 -3.51639
107 1 13.6964 6.33977 14.6966 1.23087 -3.86314 -3.51638
108 1 15.7194 4.31677 14.6966 1.23087 -3.86315 -3.51639
109 1 1.5584 4.31677 12.6736 1.23087 -3.86314 -3.51639
110 1 3.5814 6.33977 12.6736 1.23087 -3.86313 -3.51639
111 1 1.5584 6.33977 14.6966 1.23086 -3.86314 -3.51638
112 1 3.5814 4.31677 14.6966 1.23088 -3.86314 -3.51639
113 1 5.6044 8.36277 12.6736 1.23087 -3.86313 -3.51638
114 1 7.6274 10.3858 12.6736 1.23088 -3.86315 -3.51638
115 1 5.6044 10.3858 14.6966 1.23088 -3.86313 -3.51639
116 1 7.6274 8.36277 14.6966 1.23087 -3.86314 -3.51639
117 1 9.6504 8.36277 12.6736 1.23086 -3.86313 -3.51639
118 1 11.6734 10.3858 12.6736 1.23086 -3.86314 -3.51639
119 1 9.6504 10.3858 14.6966 1.23087 -3.86314 -3.51638
120 1 11.6734 8.36277 14.6966 1.23087 -3.86314 -3.51639
121 1 13.6964 8.36277 12.6736 1.23086 -3.86315 -3.51639
122 1 15.7194 10.3858 12.6736 1.23087 -3.86314 -3.51639
123 1 13.6964 10.3858 14.6966 1.23086 -3.86315 -3.51638
124 1 15.7194 8.36277 14.6966 1.23087 -3.86313 -3.51639
125 1 1.5584 8.36277 12.6736 1.23087 -3.86313 -3.51639
126 1 3.5814 10.3858 12.6736 1.23087 -3.86314 -3.51638
127 1 1.5584 10.3858 14.6966 1.23088 -3.86314 -3.51639
128 1 3.5814 8.36277 14.6966 1.23088 -3.86315 -3.51638
129 1 5.6044 12.4088 0.535579 1.23086 -3.86314 -3.51639
130 1 7.6274 14.4318 0.535579 1.23088 -3.86314 -3.51638
131 1 5.6044 14.4318 2.55858 1.23087 -3.86314 -3.5164
132 1 7.6274 12.4088 2.55858 1.23088 -3.86314 -3.51638
133 1 9.6504 12.4088 0.535579 1.23087 -3.86314 -3.51639
134 1 11.6734 14.4318 0.535579 1.23088 -3.86314 -3.51639
135 1 9.6504 14.4318 2.55858 1.23087 -3.86314 -3.51638
136 1 11.6734 12.4088 2.55858 1.23088 -3.86314 -3.51638
137 1 13.6964 12.4088 0.535579 1.23087 -3.86313 -3.51638
138 1 15.7194 14.4318 0.535579 1.23087 -3.86314 -3.51638
139 1 13.6964 14.4318 2.55858 1.23087 -3.86315 -3.51638
140 1 15.7194 12.4088 2.55858 1.23087 -3.86314 -3.51638
141 1 1.5584 12.4088 0.535579 1.23088 -3.86314 -3.5164
142 1 3.5814 14.4318 0.535579 1.23088 -3.86313 -3.51638
143 1 1.5584 14.4318 2.55858 1.23088 -3.86315 -3.51639
144 1 3.5814 12.4088 2.55858 1.23087 -3.86313 -3.51639
145 1 5.6044 0.270765 0.535579 1.23087 -3.86314 -3.51639
146 1 7.6274 2.29377 0.535579 1.23087 -3.86314 -3.51639
147 1 5.6044 2.29377 2.55858 1.23087 -3.86313 -3.51639
148 1 7.6274 0.270765 2.55858 1.23088 -3.86314 -3.5164
149 1 9.6504 0.270766 0.535579 1.23088 -3.86312 -3.51639
150 1 11.6734 2.29377 0.535579 1.23088 -3.86315 -3.5164
151 1 9.6504 2.29377 2.55858 1.23087 -3.86314 -3.5164
152 1 11.6734 0.270766 2.55858 1.23087 -3.86315 -3.51638
153 1 13.6964 0.270766 0.535579 1.23087 -3.86313 -3.51638
154 1 15.7194 2.29377 0.535579 1.23088 -3.86314 -3.51639
155 1 13.6964 2.29377 2.55858 1.23088 -3.86314 -3.51638
156 1 15.7194 0.270766 2.55858 1.23088 -3.86313 -3.51639
157 1 1.5584 0.270765 0.535579 1.23088 -3.86315 -3.51638
158 1 3.5814 2.29376 0.535579 1.23088 -3.86313 -3.51639
159 1 1.5584 2.29377 2.55858 1.23087 -3.86313 -3.51638
160 1 3.5814 0.270766 2.55858 1.23087 -3.86313 -3.51639
161 1 5.6044 4.31677 0.535579 1.23087 -3.86315 -3.51639
162 1 7.6274 6.33977 0.535579 1.23087 -3.86314 -3.51639
163 1 5.6044 6.33977 2.55858 1.23087 -3.86314 -3.51639
164 1 7.6274 4.31677 2.55858 1.23087 -3.86315 -3.51639
165 1 9.6504 4.31677 0.535579 1.23088 -3.86315 -3.51638
166 1 11.6734 6.33977 0.535579 1.23087 -3.86314 -3.51639
167 1 9.6504 6.33977 2.55858 1.23088 -3.86315 -3.51638
168 1 11.6734 4.31677 2.55858 1.23088 -3.86314 -3.51638
169 1 13.6964 4.31677 0.535579 1.23087 -3.86314 -3.5164
170 1 15.7194 6.33977 0.535579 1.23087 -3.86314 -3.51639
171 1 13.6964 6.33977 2.55858 1.23088 -3.86314 -3.51638
172 1 15.7194 4.31677 2.55858 1.23088 -3.86314 -3.51639
173 1 1.5584 4.31677 0.535579 1.23086 -3.86313 -3.51639
174 1 3.5814 6.33977 0.535579 1.23087 -3.86314 -3.51638
175 1 1.5584 6.33977 2.55858 1.23087 -3.86314 -3.5164
176 1 3.5814 4.31677 2.55858 1.23088 -3.86314 -3.51639
177 1 5.6044 8.36277 0.535579 1.23088 -3.86314 -3.51638
178 1 7.6274 10.3858 0.535579 1.23088 -3.86315 -3.51638
179 1 5.6044 10.3858 2.55858 1.23088 -3.86314 -3.51638
180 1 7.6274 8.36277 2.55858 1.23087 -3.86315 -3.51639
181 1 9.6504 8.36277 0.535579 1.23087 -3.86314 -3.51638
182 1 11.6734 10.3858 0.535579 1.23087 -3.86314 -3.51639
183 1 9.6504 10.3858 2.55858 1.23088 -3.86315 -3.51639
184 1 11.6734 8.36277 2.55858 1.23087 -3.86315 -3.51638
185 1 13.6964 8.36277 0.535579 1.23087 -3.86315 -3.51638
186 1 15.7194 10.3858 0.535579 1.23086 -3.86314 -3.51638
187 1 13.6964 10.3858 2.55858 1.23087 -3.86314 -3.51638
188 1 15.7194 8.36277 2.55858 1.23087 -3.86313 -3.51639
189 1 1.5584 8.36277 0.535579 1.23088 -3.86314 -3.51639
190 1 3.5814 10.3858 0.535579 1.23088 -3.86314 -3.51638
191 1 1.5584 10.3858 2.55858 1.23086 -3.86314 -3.5164
192 1 3.5814 8.36277 2.55858 1.23087 -3.86313 -3.51639
193 1 5.6044 12.4088 4.58158 1.23087 -3.86314 -3.51639
194 1 7.6274 14.4318 4.58158 1.23087 -3.86314 -3.51638
195 1 5.6044 14.4318 6.60458 1.23088 -3.86315 -3.51639
196 1 7.6274 12.4088 6.60458 1.23087 -3.86314 -3.51639
197 1 9.6504 12.4088 4.58158 1.23087 -3.86314 -3.51639
198 1 11.6734 14.4318 4.58158 1.23086 -3.86313 -3.5164
199 1 9.6504 14.4318 6.60458 1.23086 -3.86314 -3.51639
200 1 11.6734 12.4088 6.60458 1.23086 -3.86313 -3.51639
201 1 13.6964 12.4088 4.58158 1.23087 -3.86315 -3.51638
202 1 15.7194 14.4318 4.58158 1.23087 -3.86314 -3.51638
203 1 13.6964 14.4318 6.60458 1.23087 -3.86313 -3.51638
204 1 15.7194 12.4088 6.60458 1.23087 -3.86315 -3.51638
205 1 1.5584 12.4088 4.58158 1.23087 -3.86314 -3.51639
206 1 3.5814 14.4318 4.58158 1.23087 -3.86314 -3.51639
207 1 1.5584 14.4318 6.60458 1.23087 -3.86314 -3.51639
208 1 3.5814 12.4088 6.60458 1.23087 -3.86314 -3.51638
209 1 5.6044 0.270766 4.58158 1.23088 -3.86314 -3.51639
210 1 7.6274 2.29377 4.58158 1.23087 -3.86314 -3.51639
211 1 5.6044 2.29377 6.60458 1.23087 -3.86314 -3.51639
212 1 7.6274 0.270766 6.60458 1.23087 -3.86315 -3.51639
213 1 9.6504 0.270766 4.58158 1.23086 -3.86314 -3.51639
214 1 11.6734 2.29377 4.58158 1.23087 -3.86314 -3.51638
215 1 9.6504 2.29377 6.60458 1.23087 -3.86314 -3.51639
216 1 11.6734 0.270766 6.60458 1.23088 -3.86313 -3.51639
217 1 13.6964 0.270766 4.58158 1.23086 -3.86314 -3.51639
218 1 15.7194 2.29377 4.58158 1.23087 -3.86315 -3.51639
219 1 13.6964 2.29377 6.60458 1.23088 -3.86314 -3.51639
220 1 15.7194 0.270766 6.60458 1.23087 -3.86315 -3.51639
221 1 1.5584 0.270766 4.58158 1.23086 -3.86314 -3.51638
222 1 3.5814 2.29377 4.58158 1.23088 -3.86314 -3.51638
223 1 1.5584 2.29377 6.60458 1.23087 -3.86314 -3.51638
224 1 3.5814 0.270765 6.60458 1.23087 -3.86314 -3.51639
225 1 5.6044 4.31677 4.58158 1.23087 -3.86313 -3.51639
226 1 7.6274 6.33977 4.58158 1.23087 -3.86314 -3.51638
227 1 5.6044 6.33977 6.60458 1.23087 -3.86315 -3.51639
228 1 7.6274 4.31677 6.60458 1.23087 -3.86314 -3.51639
229 1 9.6504 4.31677 4.58158 1.23087 -3.86315 -3.51639
230 1 11.6734 6.33977 4.58158 1.23087 -3.86313 -3.51639
231 1 9.6504 6.33977 6.60458 1.23088 -3.86313 -3.51638
232 1 11.6734 4.31677 6.60458 1.23088 -3.86314 -3.51639
233 1 13.6964 4.31677 4.58158 1.23087 -3.86314 -3.51639
234 1 15.7194 6.33977 4.58158 1.23088 -3.86314 -3.51638
235 1 13.6964 6.33977 6.60458 1.23087 -3.86314 -3.51638
236 1 15.7194 4.31677 6.60458 1.23088 -3.86315 -3.51639
237 1 1.5584 4.31677 4.58158 1.23088 -3.86314 -3.51639
238 1 3.5814 6.33977 4.58158 1.23087 -3.86313 -3.51638
239 1 1.5584 6.33977 6.60458 1.23087 -3.86314 -3.51639
240 1 3.5814 4.31677 6.60458 1.23088 -3.86314 -3.51639
241 1 5.6044 8.36277 4.58158 1.23088 -3.86313 -3.51639
242 1 7.6274 10.3858 4.58158 1.23087 -3.86314 -3.51639
243 1 5.6044 10.3858 6.60458 1.23087 -3.86314 -3.51638
244 1 7.6274 8.36277 6.60458 1.23087 -3.86314 -3.51638
245 1 9.6504 8.36277 4.58158 1.23088 -3.86314 -3.51638
246 1 11.6734 10.3858 4.58158 1.23088 -3.86314 -3.51638
247 1 9.6504 10.3858 6.60458 1.23088 -3.86314 -3.51639
248 1 11.6734 8.36277 6.60458 1.23087 -3.86315 -3.51639
249 1 13.6964 8.36277 4.58158 1.23087 -3.86314 -3.51638
250 1 15.7194 10.3858 4.58158 1.23087 -3.86315 -3.51638
251 1 13.6964 10.3858 6.60458 1.23086 -3.86314 -3.51639
252 1 15.7194 8.36277 6.60458 1.23087 -3.86314 -3.51639
253 1 1.5584 8.36277 4.58158 1.23088 -3.86314 -3.51639
254 1 3.5814 10.3858 4.58158 1.23087 -3.86314 -3.5164
255 1 1.5584 10.3858 6.60458 1.23088 -3.86313 -3.51638
256 1 3.5814 8.36277 6.60458 1.23087 -3.86313 -3.51638
