ITEM: TIMESTEP
74000000
ITEM: NUMBER OF ATOMS
256
ITEM: BOX BOUNDS pp pp pp
0.0000000000000000e+00 1.6184000000000001e+01
0.0000000000000000e+00 1.6184000000000001e+01
0.0000000000000000e+00 1.6184000000000001e+01
ITEM: ATOMS id type x y z vx vy vz
1 1 10.7583 13.562 11.3187 1.06512 -3.84779 -3.32571
2 1 12.7795 15.5896 11.3312 1.15693 -3.97315 -3.48992
3 1 10.7591 15.5768 13.3477 1.14289 -3.70766 -3.4702
4 1 12.7843 13.5592 13.3465 1.07163 -3.81242 -3.2909
5 1 14.807 13.5703 11.3334 1.08692 -4.01991 -3.2269
6 1 0.641237 15.5932 11.3477 1.16705 -4.05529 -3.36509
7 1 14.8048 15.5855 13.363 1.17715 -3.92176 -3.40511
8 1 0.64827 13.5624 13.3639 1.09046 -3.92456 -3.20427
9 1 2.66819 13.5663 11.3425 1.08724 -3.95073 -3.19623
10 1 4.685 15.5841 11.3438 1.18215 -3.86507 -3.39416
11 1 2.66693 15.5826 13.3727 1.1678 -3.89439 -3.3361
12 1 4.69346 13.5539 13.3611 1.09261 -3.77418 -3.22124
13 1 6.71131 13.5573 11.328 1.10056 -3.7848 -3.29002
14 1 8.73187 15.5802 11.326 1.17235 -3.79284 -3.50841
15 1 6.71311 15.5731 13.3572 1.17741 -3.69057 -3.41672
16 1 8.7379 13.5502 13.3422 1.06243 -3.65466 -3.31082
17 1 10.7504 1.42288 11.3336 1.32483 -3.89386 -3.74977
18 1 12.7683 3.45317 11.3444 1.47037 -4.02458 -3.85739
19 1 10.7492 3.43977 13.3618 1.42075 -3.76989 -3.8538
20 1 12.7761 1.42215 13.3619 1.30821 -3.86045 -3.67842
21 1 14.7956 1.43288 11.3492 1.32644 -4.09517 -3.65469
22 1 0.628891 3.45549 11.3627 1.44827 -4.12311 -3.73895
23 1 14.7928 3.45054 13.3774 1.44036 -3.99267 -3.77573
24 1 0.636904 1.42578 13.3803 1.30335 -3.9948 -3.56786
25 1 2.65574 1.428 11.3585 1.31654 -4.02527 -3.58486
26 1 4.67443 3.44217 11.3584 1.47187 -3.94177 -3.7789
27 1 2.65559 3.44401 13.3882 1.42002 -3.96695 -3.71503
28 1 4.68395 1.41542 13.3763 1.31016 -3.82597 -3.57569
29 1 6.70229 1.41711 11.3424 1.35173 -3.82455 -3.6933
30 1 8.72229 3.43968 11.341 1.47374 -3.84746 -3.87742
31 1 6.70349 3.43237 13.3722 1.44264 -3.76005 -3.80936
32 1 8.73142 1.41137 13.3578 1.29383 -3.68044 -3.69306
33 1 10.7446 5.4695 11.3391 1.48403 -3.91997 -3.86047
34 1 12.7707 7.5005 11.3378 1.40252 -3.99553 -3.67392
35 1 10.7502 7.48657 13.3547 1.39422 -3.79453 -3.72447
36 1 12.7698 5.47085 13.3662 1.49723 -3.89888 -3.84854
37 1 14.7905 5.48061 11.3537 1.49071 -4.10118 -3.77023
38 1 0.634048 7.50115 11.3552 1.38001 -4.07728 -3.54887
39 1 14.7965 7.4971 13.37 1.42558 -3.97856 -3.65092
40 1 0.632005 5.47237 13.3853 1.47773 -4.02681 -3.75595
41 1 2.6521 5.47156 11.3629 1.47384 -4.03876 -3.73123
42 1 4.67893 7.4868 11.3507 1.39565 -3.9293 -3.56574
43 1 2.66082 7.48823 13.3793 1.39901 -3.95705 -3.59378
44 1 4.67977 5.45841 13.3811 1.48014 -3.88312 -3.75184
45 1 6.69798 5.45966 11.3485 1.4981 -3.8712 -3.80629
46 1 8.72364 7.48562 11.3343 1.3905 -3.84833 -3.67193
47 1 6.70601 7.477 13.3648 1.40142 -3.7917 -3.64141
48 1 8.7257 5.45626 13.3635 1.46209 -3.74359 -3.84462
49 1 10.7515 9.51638 11.3233 1.23589 -3.88465 -3.47497
50 1 12.781 11.5451 11.3233 1.11614 -3.95285 -3.27612
51 1 10.7588 11.5317 13.3396 1.08746 -3.72806 -3.34703
52 1 12.7779 9.51568 13.3511 1.25969 -3.8566 -3.48193
53 1 14.8007 9.52607 11.3389 1.25616 -4.04462 -3.36104
54 1 0.645852 11.5469 11.3404 1.12108 -4.01948 -3.16924
55 1 14.8072 11.5402 13.3551 1.13072 -3.91158 -3.23643
56 1 0.643323 9.51692 13.369 1.25973 -3.97145 -3.37109
57 1 2.66328 9.51785 11.3476 1.24272 -3.97423 -3.31361
58 1 4.68896 11.5364 11.3373 1.12872 -3.86207 -3.20983
59 1 2.67106 11.535 13.3652 1.11888 -3.887 -3.20575
60 1 4.68909 9.50492 13.3654 1.25771 -3.84742 -3.38172
61 1 6.70581 9.5075 11.333 1.25036 -3.83628 -3.39249
62 1 8.73252 11.5339 11.3192 1.1172 -3.80306 -3.30863
63 1 6.7144 11.5259 13.3504 1.10709 -3.72002 -3.2865
64 1 8.73205 9.50285 13.3477 1.22759 -3.72575 -3.48904
65 1 10.7569 13.5466 15.364 1.01498 -3.6593 -3.33846
66 1 12.7774 15.5744 15.376 1.10977 -3.7718 -3.45304
67 1 10.7467 15.567 1.21013 1.07243 -3.69518 -3.48724
68 1 12.7704 13.5489 1.20885 1.00125 -3.80749 -3.34649
69 1 14.8032 13.5544 15.3782 1.06229 -3.83187 -3.25807
70 1 0.639724 15.5782 15.3929 1.12738 -3.86251 -3.33511
71 1 14.7909 15.5754 1.22263 1.09897 -3.8596 -3.41648
72 1 0.634649 13.5519 1.22399 1.02027 -3.84209 -3.21772
73 1 2.66768 13.5515 15.3883 1.05281 -3.78938 -3.17787
74 1 4.68744 15.5704 15.3897 1.1141 -3.69494 -3.30895
75 1 2.65492 15.5722 1.23213 1.08172 -3.78024 -3.27131
76 1 4.68186 13.5438 1.22211 0.987694 -3.69077 -3.19284
77 1 6.71299 13.5433 15.3742 1.03292 -3.62024 -3.26859
78 1 8.73343 15.5661 15.3719 1.0807 -3.58955 -3.45107
79 1 6.7023 15.5638 1.21892 1.05904 -3.61799 -3.38289
80 1 8.72593 13.5404 1.20585 0.975163 -3.65211 -3.34582
81 1 10.7509 1.40946 15.3788 1.23641 -3.66766 -3.68184
82 1 12.767 3.4406 15.3898 1.41693 -3.80116 -3.82185
83 1 10.7377 3.43177 1.22456 1.36176 -3.67916 -3.84741
84 1 12.7633 1.41292 1.22284 1.24441 -3.79181 -3.66099
85 1 14.7938 1.41892 15.3937 1.26975 -3.87076 -3.60976
86 1 0.628252 3.44337 15.4085 1.39837 -3.90862 -3.71195
87 1 14.7798 3.44236 1.23751 1.37691 -3.85639 -3.76383
88 1 0.624225 1.41632 1.2388 1.23508 -3.84774 -3.51511
89 1 2.65743 1.41533 15.4045 1.24984 -3.83215 -3.48534
90 1 4.67785 3.43168 15.4052 1.39464 -3.7518 -3.69835
91 1 2.64414 3.43571 1.2481 1.34834 -3.77494 -3.62688
92 1 4.67352 1.40642 1.23609 1.21255 -3.6673 -3.48759
93 1 6.70603 1.40509 15.3887 1.2464 -3.62274 -3.59723
94 1 8.7247 3.42827 15.3874 1.37549 -3.62222 -3.82533
95 1 6.69356 3.42501 1.23438 1.34043 -3.60104 -3.74669
96 1 8.72095 1.40301 1.22019 1.21112 -3.60757 -3.65984
97 1 10.7444 5.45778 15.385 1.46145 -3.71303 -3.87743
98 1 12.7677 7.48771 15.3835 1.4148 -3.82593 -3.75211
99 1 10.7375 7.4788 1.21989 1.36043 -3.72282 -3.77884
100 1 12.7565 5.4631 1.2294 1.44249 -3.79363 -3.86278
101 1 14.7877 5.46842 15.3992 1.48787 -3.90043 -3.8077
102 1 0.631746 7.48891 15.4012 1.40584 -3.91274 -3.63139
103 1 14.7822 7.48937 1.23249 1.381 -3.87144 -3.69856
104 1 0.61869 5.46459 1.246 1.42161 -3.85365 -3.73568
105 1 2.65271 5.46074 15.4096 1.45777 -3.86285 -3.72162
106 1 4.68065 7.47585 15.3973 1.38591 -3.77565 -3.59748
107 1 2.64812 7.48029 1.24133 1.34289 -3.79394 -3.57017
108 1 4.66866 5.45094 1.24298 1.39197 -3.68776 -3.69929
109 1 6.70089 5.44937 15.3954 1.45148 -3.68008 -3.7958
110 1 8.72461 7.4739 15.3808 1.35794 -3.67138 -3.72643
111 1 6.69485 7.46995 1.22917 1.31912 -3.65813 -3.63859
112 1 8.71453 5.44938 1.22794 1.38758 -3.62693 -3.84074
113 1 10.7496 9.50278 15.3694 1.20783 -3.71046 -3.56535
114 1 12.7772 11.5297 15.3686 1.0868 -3.7706 -3.34536
115 1 10.7457 11.5224 1.20417 1.02937 -3.73083 -3.41976
116 1 12.7639 9.50738 1.21574 1.21155 -3.81847 -3.56155
117 1 14.7965 9.51205 15.3845 1.24889 -3.87751 -3.46997
118 1 0.642793 11.5321 15.3859 1.10683 -3.85587 -3.23792
119 1 14.7927 11.531 1.21722 1.06182 -3.86567 -3.30893
120 1 0.629396 9.50856 1.23116 1.21061 -3.85948 -3.40795
121 1 2.66252 9.50518 15.394 1.23124 -3.83764 -3.3836
122 1 4.68971 11.523 15.3834 1.08387 -3.72301 -3.23435
123 1 2.65837 11.5252 1.22683 1.04565 -3.78548 -3.19458
124 1 4.67752 9.49653 1.22847 1.17014 -3.71759 -3.37909
125 1 6.70718 9.49553 15.3798 1.20643 -3.68675 -3.45072
126 1 8.73242 11.52 15.3655 1.05182 -3.62972 -3.35861
127 1 6.70283 11.5169 1.21421 1.00769 -3.6604 -3.30202
128 1 8.72023 9.49492 1.21345 1.16095 -3.67652 -3.5434
129 1 10.7401 13.5474 3.22855 0.994479 -3.8167 -3.40008
130 1 12.7603 15.5756 3.2383 1.07769 -3.8886 -3.51085
131 1 10.7353 15.577 5.25755 1.07791 -3.89407 -3.55584
132 1 12.7612 13.5598 5.25629 0.986286 -3.99099 -3.38193
133 1 14.7861 13.5564 3.23941 1.00437 -3.95008 -3.31045
134 1 0.62119 15.5796 3.25128 1.09256 -3.9414 -3.35761
135 1 14.7806 15.5868 5.26798 1.05811 -4.05307 -3.48532
136 1 0.623498 13.564 5.26849 0.997959 -4.06696 -3.24148
137 1 2.64894 13.5517 3.24778 0.999879 -3.88741 -3.17577
138 1 4.66828 15.5704 3.24904 1.06314 -3.77901 -3.31507
139 1 2.64073 15.5837 5.27528 1.06749 -4.0122 -3.33286
140 1 4.66729 13.555 5.26662 0.994214 -3.91961 -3.21385
141 1 6.69452 13.5436 3.2368 0.974238 -3.74232 -3.28203
142 1 8.71561 15.5668 3.23508 1.06718 -3.72486 -3.48919
143 1 6.68704 15.5746 5.26405 1.0735 -3.82897 -3.42942
144 1 8.71344 13.5511 5.25313 1.01692 -3.85644 -3.36062
145 1 10.7344 1.40997 3.24186 1.21548 -3.75573 -3.71634
146 1 12.751 3.44123 3.25207 1.34452 -3.82284 -3.83463
147 1 10.7273 3.43958 5.27158 1.37546 -3.82218 -3.88784
148 1 12.7535 1.42219 5.26947 1.2129 -3.95306 -3.73999
149 1 14.7768 1.42028 3.25319 1.21741 -3.91945 -3.64383
150 1 0.610316 3.44416 3.26674 1.33635 -3.89335 -3.69461
151 1 14.7704 3.45139 5.28239 1.3345 -3.99142 -3.80489
152 1 0.612297 1.4271 5.28228 1.203 -4.04822 -3.57895
153 1 2.63868 1.41535 3.26232 1.20851 -3.86054 -3.4723
154 1 4.65923 3.4313 3.26455 1.32385 -3.73344 -3.66584
155 1 2.63063 3.4448 5.29085 1.33463 -3.9576 -3.66516
156 1 4.65822 1.41637 5.27953 1.20999 -3.87764 -3.5585
157 1 6.68804 1.4056 3.24977 1.2014 -3.67919 -3.58986
158 1 8.70801 3.42889 3.25072 1.33256 -3.65289 -3.81852
159 1 6.67927 3.43353 5.27931 1.36022 -3.77248 -3.77138
160 1 8.70785 1.41224 5.26669 1.23793 -3.79006 -3.72381
161 1 10.7281 5.45821 3.24991 1.39302 -3.72874 -3.86706
162 1 12.7519 7.4891 3.24873 1.32555 -3.82938 -3.73896
163 1 10.7267 7.48698 5.26863 1.32388 -3.81843 -3.71872
164 1 12.7473 5.47096 5.2766 1.39153 -3.88711 -3.85349
165 1 14.7708 5.47003 3.26065 1.39129 -3.87816 -3.79077
166 1 0.6145 7.49037 3.26235 1.31264 -3.88424 -3.58558
167 1 14.7726 7.49898 5.27893 1.29339 -3.96658 -3.64005
168 1 0.607377 5.47395 5.29003 1.36761 -3.98705 -3.7117
169 1 2.63404 5.46066 3.26929 1.37037 -3.81349 -3.65984
170 1 4.66255 7.47558 3.25946 1.28203 -3.74776 -3.53668
171 1 2.63458 7.48968 5.28588 1.2944 -3.92855 -3.50506
172 1 4.65395 5.4593 5.28744 1.3717 -3.83742 -3.67484
173 1 6.68284 5.44955 3.25838 1.35314 -3.65267 -3.7433
174 1 8.70826 7.47473 3.24697 1.29334 -3.6836 -3.69318
175 1 6.68046 7.47858 5.27591 1.29266 -3.77385 -3.56276
176 1 8.70218 5.45716 5.27514 1.40091 -3.74355 -3.80875
177 1 10.7348 9.50392 3.23612 1.16031 -3.78237 -3.57186
178 1 12.762 11.5313 3.23345 1.02508 -3.88519 -3.37881
179 1 10.736 11.5323 5.25297 1.05787 -3.89938 -3.40063
180 1 12.755 9.51688 5.26421 1.16676 -3.92825 -3.50514
181 1 14.7812 9.51438 3.2477 1.16983 -3.90762 -3.47411
182 1 0.626123 11.5338 3.24672 1.03934 -3.93337 -3.23588
183 1 14.7842 11.5423 5.2641 1.0361 -4.02971 -3.28979
184 1 0.618589 9.51935 5.2764 1.16717 -4.01418 -3.33865
185 1 2.64561 9.50563 3.25551 1.15943 -3.85286 -3.33391
186 1 4.67216 11.5229 3.24527 1.0072 -3.79869 -3.21507
187 1 2.646 11.5364 5.27157 1.05034 -3.99721 -3.16724
188 1 4.66332 9.50625 5.27401 1.16191 -3.87909 -3.31445
189 1 6.69065 9.49609 3.24475 1.12398 -3.7229 -3.40768
190 1 8.71638 11.5209 3.23135 1.00972 -3.75235 -3.37013
191 1 6.6894 11.5274 5.26086 1.04267 -3.85351 -3.25987
192 1 8.70809 9.50422 5.26174 1.18315 -3.80458 -3.47316
193 1 10.7415 13.562 7.27483 1.01119 -3.99045 -3.39769
194 1 12.7638 15.5894 7.28509 1.06317 -4.07376 -3.55692
195 1 10.7484 15.5874 9.30289 1.11128 -3.99036 -3.55968
196 1 12.7755 13.5702 9.30198 1.02763 -4.07798 -3.33793
197 1 14.7901 13.571 7.28635 0.980848 -4.13896 -3.2875
198 1 0.623995 15.5945 7.29787 1.06944 -4.14562 -3.39096
199 1 14.7953 15.5965 9.31644 1.1089 -4.15397 -3.45982
200 1 0.637719 13.5738 9.31694 1.04633 -4.10687 -3.19682
201 1 2.64952 13.5679 7.29386 1.01712 -4.06485 -3.19253
202 1 4.66686 15.5859 7.29499 1.09792 -3.95553 -3.3905
203 1 2.65385 15.5932 9.32432 1.13433 -4.05187 -3.36928
204 1 4.67959 13.5649 9.31402 1.07968 -3.91999 -3.22389
205 1 6.6926 13.5593 7.28233 1.03686 -3.90927 -3.29661
206 1 8.71505 15.5814 7.28079 1.12279 -3.90642 -3.54607
207 1 6.69877 15.584 9.31039 1.15986 -3.87089 -3.47564
208 1 8.72574 13.5615 9.29741 1.07249 -3.90264 -3.34799
209 1 10.7359 1.42244 7.28824 1.26881 -3.95572 -3.79863
210 1 12.7538 3.45199 7.29827 1.37916 -4.03409 -3.88778
211 1 10.739 3.44812 9.31673 1.44981 -3.98911 -3.92105
212 1 12.7669 1.43145 9.31635 1.27847 -4.10836 -3.76616
213 1 14.7806 1.43298 7.30021 1.22439 -4.13593 -3.70081
214 1 0.61239 3.45616 7.31273 1.36032 -4.11666 -3.73488
215 1 14.7838 3.45914 9.3305 1.42559 -4.16183 -3.80466
216 1 0.625766 1.43546 9.33194 1.27774 -4.15842 -3.60317
217 1 2.63878 1.4291 7.30828 1.24293 -4.06034 -3.56772
218 1 4.65705 3.44332 7.30978 1.39542 -3.92464 -3.74581
219 1 2.64247 3.45243 9.3393 1.43659 -4.07485 -3.72314
220 1 4.66947 1.42489 9.32793 1.31522 -3.95476 -3.63702
221 1 6.68596 1.41898 7.29535 1.28442 -3.87365 -3.68085
222 1 8.70677 3.44016 7.29606 1.42707 -3.85884 -3.87665
223 1 6.68948 3.44113 9.3252 1.47777 -3.89297 -3.84836
224 1 8.71887 1.42123 9.31212 1.31993 -3.90428 -3.7844
225 1 10.7285 5.46853 7.29564 1.44388 -3.9126 -3.86793
226 1 12.7538 7.49983 7.29443 1.34866 -3.99571 -3.67961
227 1 10.7386 7.49536 9.3116 1.38404 -3.96307 -3.68173
228 1 12.7602 5.47903 9.32167 1.47549 -4.07386 -3.84264
229 1 14.7738 5.48064 7.30673 1.39905 -4.0752 -3.76998
230 1 0.615766 7.50243 7.30808 1.32989 -4.06566 -3.51316
231 1 14.7861 7.50648 9.32492 1.37082 -4.10389 -3.58238
232 1 0.620296 5.48096 9.33792 1.45605 -4.11806 -3.70431
233 1 2.63339 5.47246 7.31448 1.41252 -4.00912 -3.67372
234 1 4.65956 7.48815 7.30468 1.35579 -3.91056 -3.50285
235 1 2.6465 7.49728 9.33243 1.38237 -4.01099 -3.5074
236 1 4.66458 5.4665 9.33388 1.4847 -3.94441 -3.72296
237 1 6.67981 5.46097 7.30337 1.44245 -3.84228 -3.75894
238 1 8.70605 7.48619 7.2921 1.37798 -3.84883 -3.64718
239 1 6.69072 7.48607 9.31975 1.40045 -3.87075 -3.57844
240 1 8.71279 5.46488 9.31885 1.49415 -3.89525 -3.83891
241 1 10.7348 9.51624 7.28163 1.222 -3.94621 -3.49435
242 1 12.7646 11.5451 7.27986 1.04945 -4.06187 -3.32801
243 1 10.7486 11.5424 9.29643 1.08788 -3.9728 -3.33817
244 1 12.7682 9.5256 9.30782 1.21135 -4.04454 -3.43124
245 1 14.7837 9.52692 7.29382 1.18912 -4.0814 -3.38005
246 1 0.62804 11.5486 7.29318 1.06118 -4.11764 -3.1734
247 1 14.7983 11.5514 9.31041 1.08402 -4.10723 -3.20185
248 1 0.631918 9.52744 9.32292 1.22027 -4.08421 -3.27472
249 1 2.64459 9.51942 7.30094 1.21321 -4.02135 -3.26991
250 1 4.66994 11.5383 7.29114 1.08539 -3.95897 -3.1867
251 1 2.65856 11.5457 9.31863 1.10984 -4.01771 -3.15135
252 1 4.67434 9.51475 9.31946 1.2474 -3.92576 -3.30544
253 1 6.68728 9.5094 7.28968 1.22847 -3.88224 -3.35248
254 1 8.715 11.5351 7.27683 1.0944 -3.91822 -3.32958
255 1 6.7006 11.5369 9.30531 1.11992 -3.87846 -3.25218
256 1 8.71905 9.51299 9.3042 1.23748 -3.89533 -3.43848
