ITEM: TIMESTEP
62000000
ITEM: NUMBER OF ATOMS
256
ITEM: BOX BOUNDS pp pp pp
0.0000000000000000e+00 1.6184000000000001e+01
0.0000000000000000e+00 1.6184000000000001e+01
0.0000000000000000e+00 1.6184000000000001e+01
ITEM: ATOMS id type x y z vx vy vz
1 1 14.3886 13.7176 3.30362 1.06563 -3.52141 -3.19872
2 1 0.227069 15.7423 3.30655 1.0786 -3.54627 -3.20926
3 1 14.3876 15.7413 5.32817 1.07813 -3.52227 -3.20197
4 1 0.227618 13.7197 5.32731 1.06843 -3.55103 -3.21414
5 1 2.25147 13.7209 3.30657 1.07034 -3.5706 -3.23661
6 1 4.2739 15.7442 3.30983 1.0777 -3.57113 -3.25823
7 1 2.25021 15.744 5.33118 1.08017 -3.57302 -3.23668
8 1 4.27473 13.7217 5.33071 1.07341 -3.57581 -3.26027
9 1 6.29815 13.7205 3.30824 1.06982 -3.55589 -3.26684
10 1 8.31972 15.7422 3.30887 1.07328 -3.52548 -3.25402
11 1 6.29684 15.744 5.33301 1.07964 -3.55835 -3.26588
12 1 8.32082 13.719 5.32991 1.07225 -3.53118 -3.25359
13 1 10.3433 13.7172 3.30528 1.06499 -3.50738 -3.22915
14 1 12.3649 15.7403 3.30559 1.07414 -3.50009 -3.20644
15 1 10.3422 15.7412 5.32998 1.07758 -3.50801 -3.23124
16 1 12.3657 13.717 5.32651 1.06733 -3.5064 -3.20947
17 1 14.3864 1.5798 3.30684 1.09901 -3.51562 -3.19251
18 1 0.224461 3.60382 3.30825 1.12157 -3.54179 -3.19863
19 1 14.3852 3.6031 5.33036 1.12204 -3.52055 -3.18781
20 1 0.225337 1.58155 5.33102 1.10194 -3.54853 -3.20726
21 1 2.24878 1.58231 3.30984 1.09975 -3.56497 -3.2292
22 1 4.26993 3.6058 3.31152 1.116 -3.56607 -3.24649
23 1 2.24697 3.60584 5.33331 1.1218 -3.56691 -3.22345
24 1 4.27156 1.58346 5.33444 1.09953 -3.57402 -3.25248
25 1 6.29469 1.5825 3.31149 1.09276 -3.55139 -3.2611
26 1 8.31554 3.60392 3.31064 1.10995 -3.52624 -3.2427
27 1 6.29249 3.60591 5.33516 1.11666 -3.55565 -3.25226
28 1 8.31746 1.58181 5.33359 1.09657 -3.52991 -3.24893
29 1 10.3404 1.57998 3.3085 1.09216 -3.50272 -3.2244
30 1 12.3621 3.60193 3.30737 1.11546 -3.50133 -3.1933
31 1 10.3387 3.60318 5.33222 1.11679 -3.50992 -3.21642
32 1 12.3632 1.5799 5.33018 1.09914 -3.50439 -3.20328
33 1 14.3852 5.62505 3.30606 1.12695 -3.51932 -3.18216
34 1 0.225131 7.64989 3.3054 1.11941 -3.54559 -3.19467
35 1 14.3859 7.64836 5.3273 1.11809 -3.52215 -3.18341
36 1 0.223952 5.62741 5.33036 1.13027 -3.54447 -3.19475
37 1 2.24691 5.62835 3.30898 1.12857 -3.5622 -3.21903
38 1 4.2705 7.6521 3.30869 1.1197 -3.56815 -3.24209
39 1 2.24758 7.65221 5.33028 1.12136 -3.56381 -3.21722
40 1 4.26915 5.62952 5.33376 1.12822 -3.56834 -3.23902
41 1 6.29202 5.62805 3.31069 1.12182 -3.55258 -3.25059
42 1 8.31618 7.64887 3.30779 1.11422 -3.53295 -3.24032
43 1 6.29308 7.65149 5.33213 1.12069 -3.55498 -3.24688
44 1 8.31494 5.62698 5.33301 1.12476 -3.53163 -3.23563
45 1 10.3383 5.62475 3.30778 1.11998 -3.51043 -3.21343
46 1 12.3628 7.64665 3.3045 1.11394 -3.50982 -3.19159
47 1 10.3394 7.64765 5.32916 1.11739 -3.51378 -3.21297
48 1 12.3617 5.62487 5.32962 1.12673 -3.50779 -3.18931
49 1 14.3874 9.67088 3.30281 1.0944 -3.52481 -3.18843
50 1 0.227694 11.6963 3.30368 1.07597 -3.55003 -3.20704
51 1 14.3883 11.6945 5.32514 1.07424 -3.52382 -3.19718
52 1 0.226267 9.67353 5.3267 1.09755 -3.54682 -3.20048
53 1 2.24961 9.67497 3.30579 1.10025 -3.56771 -3.22457
54 1 4.27443 11.6985 3.30694 1.08096 -3.57322 -3.25592
55 1 2.25078 11.6984 5.32811 1.07972 -3.57 -3.2332
56 1 4.27235 9.67575 5.33012 1.10308 -3.57004 -3.24546
57 1 6.29548 9.67403 3.30746 1.09987 -3.55715 -3.25628
58 1 8.32032 11.6952 3.30604 1.07705 -3.53236 -3.2498
59 1 6.29739 11.6976 5.32995 1.08386 -3.55756 -3.26083
60 1 8.31834 9.67221 5.32929 1.10127 -3.53287 -3.2415
61 1 10.3413 9.66994 3.30448 1.09383 -3.51489 -3.22004
62 1 12.3656 11.693 3.30277 1.07215 -3.50854 -3.20252
63 1 10.3429 11.6937 5.32697 1.07815 -3.51198 -3.22492
64 1 12.3643 9.66997 5.32587 1.09578 -3.50961 -3.19685
65 1 14.387 13.7185 7.34897 1.08599 -3.52653 -3.20123
66 1 0.225188 15.7431 7.35206 1.09651 -3.55609 -3.21363
67 1 14.3843 15.742 9.37397 1.12304 -3.5319 -3.19766
68 1 0.224131 13.7207 9.37303 1.11042 -3.55563 -3.20988
69 1 2.24952 13.7218 7.35184 1.08812 -3.57546 -3.23827
70 1 4.27203 15.7451 7.35544 1.09892 -3.58203 -3.25924
71 1 2.24655 15.7448 9.37671 1.12067 -3.58183 -3.23665
72 1 4.2711 13.7227 9.3762 1.11605 -3.58098 -3.25856
73 1 6.2965 13.7213 7.35373 1.09446 -3.56192 -3.26476
74 1 8.31827 15.7431 7.3547 1.10086 -3.53618 -3.25319
75 1 6.29334 15.7448 9.37847 1.12568 -3.56815 -3.2651
76 1 8.31755 13.7201 9.37555 1.12196 -3.53658 -3.24839
77 1 10.342 13.718 7.35086 1.09222 -3.51288 -3.22798
78 1 12.3634 15.7412 7.35132 1.09876 -3.51075 -3.20882
79 1 10.3391 15.742 9.37572 1.12808 -3.51772 -3.22636
80 1 12.3626 13.718 9.37238 1.1165 -3.51207 -3.20184
81 1 14.3848 1.58091 7.3529 1.12065 -3.52848 -3.19702
82 1 0.222606 3.60524 7.35459 1.14141 -3.55253 -3.20271
83 1 14.3819 3.60437 9.37662 1.16788 -3.53286 -3.19055
84 1 0.221843 1.58241 9.37686 1.14361 -3.56036 -3.2089
85 1 2.24684 1.58343 7.3558 1.11873 -3.5777 -3.23275
86 1 4.2681 3.60723 7.35794 1.13856 -3.57785 -3.24697
87 1 2.24335 3.60711 9.37929 1.16308 -3.57855 -3.22997
88 1 4.26793 1.58436 9.38004 1.14185 -3.58649 -3.25656
89 1 6.29306 1.58363 7.35766 1.11869 -3.56472 -3.26082
90 1 8.31413 3.60536 7.35727 1.13903 -3.53744 -3.24138
91 1 6.28904 3.60722 9.38108 1.16348 -3.56841 -3.25777
92 1 8.31419 1.58273 9.37935 1.14616 -3.54249 -3.24945
93 1 10.339 1.58112 7.35476 1.12026 -3.51566 -3.22525
94 1 12.3606 3.60338 7.35393 1.14172 -3.51283 -3.1953
95 1 10.3356 3.60448 9.37841 1.16808 -3.52224 -3.21823
96 1 12.3601 1.58079 9.37618 1.14782 -3.51717 -3.20171
97 1 14.3836 5.62669 7.35259 1.14915 -3.5256 -3.18424
98 1 0.223272 7.65148 7.35158 1.1377 -3.54614 -3.19563
99 1 14.3826 7.65034 9.37384 1.16385 -3.52688 -3.18423
100 1 0.220486 5.62912 9.37673 1.17312 -3.55292 -3.20011
101 1 2.24497 5.62997 7.3554 1.14806 -3.56836 -3.22009
102 1 4.26867 7.65369 7.35495 1.14033 -3.56986 -3.23949
103 1 2.24395 7.65418 9.37654 1.16232 -3.56806 -3.22191
104 1 4.26554 5.63126 9.37988 1.17151 -3.57761 -3.2463
105 1 6.2904 5.62968 7.35731 1.14752 -3.55972 -3.24772
106 1 8.31475 7.65048 7.35426 1.14151 -3.53459 -3.23561
107 1 6.2896 7.65348 9.37832 1.16679 -3.5602 -3.25096
108 1 8.31169 5.62874 9.37929 1.17513 -3.54094 -3.23966
109 1 10.337 5.6264 7.35451 1.14868 -3.51688 -3.21163
110 1 12.3614 7.64827 7.35089 1.139 -3.51132 -3.19035
111 1 10.3363 7.64964 9.37563 1.16839 -3.51867 -3.21304
112 1 12.3586 5.62662 9.37615 1.17662 -3.51714 -3.19127
113 1 14.3858 9.67223 7.34864 1.11481 -3.52342 -3.18857
114 1 0.225849 11.6974 7.34904 1.09351 -3.54975 -3.20834
115 1 14.385 11.696 9.37121 1.11978 -3.52603 -3.19123
116 1 0.222786 9.67538 9.37294 1.13947 -3.54807 -3.1997
117 1 2.24769 9.67631 7.35153 1.11764 -3.56613 -3.2238
118 1 4.27259 11.6995 7.3524 1.10111 -3.5741 -3.25395
119 1 2.24718 11.6999 9.37391 1.12054 -3.57131 -3.2314
120 1 4.26874 9.67763 9.37612 1.14507 -3.57192 -3.24703
121 1 6.29387 9.67539 7.35341 1.12363 -3.55654 -3.25157
122 1 8.31889 11.6962 7.35171 1.10411 -3.53319 -3.24564
123 1 6.29393 11.6991 9.37569 1.12981 -3.55999 -3.2584
124 1 8.31506 9.67409 9.37545 1.15046 -3.53492 -3.23995
125 1 10.34 9.67131 7.35051 1.12087 -3.51408 -3.21621
126 1 12.3641 11.6941 7.34834 1.09644 -3.50947 -3.2017
127 1 10.3398 11.6952 9.37299 1.12908 -3.51422 -3.21836
128 1 12.3611 9.67186 9.37226 1.14477 -3.51184 -3.19263
129 1 14.384 13.719 11.3954 1.13023 -3.52874 -3.18945
130 1 0.222121 15.7433 11.3981 1.13786 -3.5588 -3.20647
131 1 14.3834 15.7415 13.4203 1.13922 -3.52629 -3.18775
132 1 0.223307 13.7205 13.4198 1.12732 -3.55338 -3.20145
133 1 2.24635 13.7224 11.398 1.12862 -3.57709 -3.23331
134 1 4.26875 15.7453 11.401 1.13807 -3.58485 -3.25871
135 1 2.24569 15.7443 13.4229 1.13584 -3.57642 -3.23212
136 1 4.27011 13.7226 13.4226 1.12926 -3.57842 -3.25726
137 1 6.29324 13.722 11.3995 1.1357 -3.56401 -3.26264
138 1 8.31508 15.7433 11.4003 1.14371 -3.53927 -3.24977
139 1 6.2922 15.7443 13.4243 1.13675 -3.56303 -3.26501
140 1 8.31633 13.7199 13.4218 1.13284 -3.53445 -3.24669
141 1 10.3389 13.7186 11.397 1.13747 -3.51487 -3.21913
142 1 12.3605 15.7414 11.3973 1.14345 -3.51376 -3.19878
143 1 10.3379 15.7416 13.4217 1.14012 -3.51239 -3.2209
144 1 12.3615 13.7179 13.419 1.13094 -3.50934 -3.19281
145 1 14.3818 1.58102 11.3988 1.16298 -3.533 -3.19195
146 1 0.219551 3.6056 11.4004 1.18158 -3.55811 -3.20542
147 1 14.381 3.60362 13.4223 1.18272 -3.52878 -3.18783
148 1 0.221005 1.58171 13.4228 1.15935 -3.55432 -3.20391
149 1 2.24364 1.58356 11.4014 1.15738 -3.58187 -3.23422
150 1 4.26482 3.60764 11.4034 1.17683 -3.58398 -3.2561
151 1 2.24248 3.60637 13.4248 1.17717 -3.57469 -3.23264
152 1 4.26692 1.58367 13.4256 1.15405 -3.58055 -3.25833
153 1 6.28977 1.5838 11.403 1.1583 -3.56984 -3.26485
154 1 8.31094 3.60578 11.4027 1.18084 -3.54387 -3.24758
155 1 6.28786 3.60649 13.4262 1.1735 -3.56506 -3.26502
156 1 8.31293 1.58204 13.4247 1.15621 -3.53708 -3.25067
157 1 10.3359 1.58126 11.4004 1.16398 -3.5203 -3.22266
158 1 12.3577 3.60375 11.3998 1.18544 -3.51874 -3.19538
159 1 10.3344 3.60374 13.4237 1.17914 -3.51859 -3.22007
160 1 12.359 1.58009 13.4219 1.16139 -3.51088 -3.19588
161 1 14.3806 5.62749 11.3988 1.19199 -3.53182 -3.18671
162 1 0.220189 7.65267 11.398 1.17883 -3.5514 -3.19882
163 1 14.3816 7.65005 13.42 1.17939 -3.52956 -3.18423
164 1 0.219638 5.62855 13.4225 1.18868 -3.55279 -3.20179
165 1 2.24179 5.63079 11.4013 1.18708 -3.57442 -3.22887
166 1 4.26536 7.65491 11.4009 1.17931 -3.57539 -3.24933
167 1 2.24304 7.65391 13.4225 1.17734 -3.571 -3.22711
168 1 4.26452 5.6307 13.4253 1.18389 -3.57744 -3.25523
169 1 6.28711 5.63053 11.4029 1.18768 -3.56644 -3.25915
170 1 8.31153 7.65169 11.4002 1.18382 -3.54009 -3.24289
171 1 6.2884 7.65322 13.424 1.17778 -3.56323 -3.2609
172 1 8.31042 5.62818 13.4246 1.18511 -3.54126 -3.24802
173 1 10.3339 5.62723 11.4004 1.1925 -3.5232 -3.21667
174 1 12.3584 7.64946 11.3973 1.18326 -3.51665 -3.19111
175 1 10.335 7.64935 13.4214 1.17981 -3.52143 -3.21785
176 1 12.3575 5.62603 13.4218 1.18989 -3.51661 -3.19269
177 1 14.3828 9.67351 11.3953 1.15831 -3.52726 -3.18423
178 1 0.222804 11.6984 11.3956 1.13556 -3.55195 -3.20167
179 1 14.3841 11.696 13.4181 1.13584 -3.52725 -3.18375
180 1 0.221906 9.67534 13.4195 1.1559 -3.55172 -3.1981
181 1 2.24449 9.67761 11.3979 1.15725 -3.56958 -3.22609
182 1 4.26934 11.7006 11.3985 1.14093 -3.57634 -3.2541
183 1 2.24628 11.6999 13.4206 1.1359 -3.57261 -3.22943
184 1 4.26768 9.67759 13.4224 1.15811 -3.57531 -3.25281
185 1 6.29057 9.6767 11.3995 1.16406 -3.56061 -3.25687
186 1 8.31572 11.6973 11.3979 1.14721 -3.53557 -3.24329
187 1 6.29277 11.6991 13.422 1.14094 -3.56129 -3.26137
188 1 8.31379 9.67405 13.4216 1.16093 -3.53844 -3.24524
189 1 10.3369 9.6726 11.3969 1.165 -3.51764 -3.21495
190 1 12.3612 11.6951 11.3949 1.14176 -3.51182 -3.19237
191 1 10.3386 11.6952 13.4195 1.14082 -3.51526 -3.21591
192 1 12.36 9.6718 13.4187 1.1585 -3.51491 -3.19093
193 1 14.3857 13.7182 15.442 1.10888 -3.5232 -3.18679
194 1 0.224005 15.7425 15.4446 1.11954 -3.54853 -3.20203
195 1 14.3867 15.7408 1.28253 1.09362 -3.51708 -3.19188
196 1 0.226764 13.7195 1.28207 1.08474 -3.5489 -3.20572
197 1 2.24829 13.7215 15.4447 1.10965 -3.57198 -3.23165
198 1 4.27062 15.7444 15.4474 1.11657 -3.57399 -3.25768
199 1 2.24933 15.7435 1.28539 1.09463 -3.56728 -3.23223
200 1 4.27372 13.7215 1.28509 1.08598 -3.57287 -3.25911
201 1 6.29488 13.7211 15.446 1.11004 -3.55836 -3.26474
202 1 8.31653 15.7425 15.4465 1.11559 -3.52905 -3.25067
203 1 6.29568 15.7435 1.28684 1.08997 -3.55278 -3.266
204 1 8.31957 13.7189 1.28414 1.08248 -3.52893 -3.25176
205 1 10.3403 13.7178 15.4434 1.10898 -3.50962 -3.22023
206 1 12.3619 15.7405 15.4436 1.11842 -3.50305 -3.19628
207 1 10.341 15.7408 1.28397 1.08884 -3.50294 -3.22581
208 1 12.3646 13.7168 1.28111 1.08123 -3.50408 -3.2006
209 1 14.3835 1.57992 15.4448 1.14201 -3.52004 -3.18728
210 1 0.221431 3.60418 15.4461 1.16293 -3.54722 -3.20135
211 1 14.3843 3.60235 1.28401 1.13697 -3.51691 -3.18518
212 1 0.224496 1.58085 1.28492 1.11724 -3.5426 -3.20199
213 1 2.2456 1.58243 15.4474 1.13882 -3.56891 -3.23071
214 1 4.26668 3.60619 15.4489 1.15549 -3.57214 -3.25558
215 1 2.2461 3.60509 1.28682 1.13587 -3.56278 -3.22614
216 1 4.27056 1.58276 1.28797 1.11125 -3.56754 -3.25456
217 1 6.29141 1.58266 15.4488 1.13302 -3.55661 -3.26514
218 1 8.31236 3.60434 15.4481 1.15284 -3.53288 -3.24906
219 1 6.29134 3.60518 1.28831 1.12694 -3.55185 -3.25947
220 1 8.3162 1.58113 1.28698 1.10625 -3.5244 -3.25013
221 1 10.3373 1.58014 15.4461 1.13613 -3.50757 -3.22183
222 1 12.3591 3.60232 15.4452 1.1604 -3.50729 -3.19321
223 1 10.3375 3.60244 1.28551 1.12789 -3.50653 -3.21833
224 1 12.3621 1.57921 1.28392 1.11227 -3.4986 -3.19759
225 1 14.3823 5.62587 15.4442 1.1709 -3.52523 -3.18448
226 1 0.22205 7.65108 15.4438 1.16103 -3.55041 -3.19778
227 1 14.385 7.64808 1.28145 1.13427 -3.52521 -3.18332
228 1 0.22313 5.62684 1.28412 1.14637 -3.54449 -3.19661
229 1 2.24374 5.62916 15.4469 1.16884 -3.56809 -3.22782
230 1 4.2672 7.65331 15.4467 1.159 -3.57367 -3.25192
231 1 2.24668 7.65193 1.28428 1.13703 -3.56656 -3.22242
232 1 4.26815 5.62895 1.28717 1.14118 -3.56773 -3.24791
233 1 6.28874 5.62889 15.4483 1.1629 -3.55963 -3.26206
234 1 8.31296 7.65009 15.4458 1.15687 -3.53886 -3.24755
235 1 6.2919 7.65122 1.28579 1.13246 -3.55764 -3.25712
236 1 8.3137 5.62643 1.28627 1.13549 -3.53189 -3.24407
237 1 10.3353 5.62559 15.4457 1.16492 -3.51699 -3.21846
238 1 12.3598 7.64785 15.4429 1.15867 -3.51516 -3.19223
239 1 10.3382 7.64736 1.28296 1.12965 -3.51673 -3.21786
240 1 12.3607 5.62429 1.28323 1.14057 -3.50774 -3.19075
241 1 14.3844 9.67216 15.4415 1.13734 -3.52851 -3.18403
242 1 0.224627 11.6974 15.4423 1.11688 -3.55197 -3.20027
243 1 14.3873 11.6945 1.27999 1.0902 -3.52542 -3.18987
244 1 0.225384 9.67348 1.28131 1.11432 -3.5506 -3.19892
245 1 2.24639 9.67625 15.4442 1.13955 -3.57091 -3.22686
246 1 4.27114 11.6995 15.4451 1.11959 -3.57537 -3.25627
247 1 2.24988 11.6984 1.28281 1.09505 -3.57114 -3.23129
248 1 4.2713 9.67571 1.28437 1.11655 -3.57301 -3.2512
249 1 6.29218 9.67533 15.4456 1.13952 -3.56129 -3.26166
250 1 8.31713 11.6962 15.4442 1.11892 -3.53505 -3.2474
251 1 6.29621 11.6976 1.28429 1.09476 -3.55849 -3.26377
252 1 8.31706 9.67216 1.28341 1.11219 -3.53623 -3.24718
253 1 10.3382 9.67124 15.4429 1.1376 -3.51867 -3.21877
254 1 12.3626 11.694 15.4413 1.11634 -3.51096 -3.19315
255 1 10.3417 11.6937 1.28147 1.08994 -3.51325 -3.2225
256 1 12.3631 9.66992 1.28034 1.11001 -3.51305 -3.19502
