ITEM: TIMESTEP
46000000
ITEM: NUMBER OF ATOMS
256
ITEM: BOX BOUNDS pp pp pp
0.0000000000000000e+00 1.6184000000000001e+01
0.0000000000000000e+00 1.6184000000000001e+01
0.0000000000000000e+00 1.6184000000000001e+01
ITEM: ATOMS id type x y z vx vy vz
1 1 9.89854 11.6379 7.72349 1.25922 -3.94808 -3.59367
2 1 11.9214 13.6611 7.72381 1.25826 -3.94779 -3.59381
3 1 9.89839 13.661 9.7467 1.25888 -3.9483 -3.59305
4 1 11.9215 11.6382 9.74662 1.25896 -3.94751 -3.59306
5 1 13.9445 11.6383 7.72381 1.25789 -3.94752 -3.5938
6 1 15.9674 13.6613 7.72417 1.2574 -3.94741 -3.59373
7 1 13.9444 13.6613 9.74702 1.25801 -3.94709 -3.59339
8 1 15.9675 11.6384 9.74697 1.25741 -3.94727 -3.59344
9 1 1.80651 11.6383 7.724 1.25726 -3.94772 -3.59358
10 1 3.8294 13.6611 7.72409 1.25806 -3.94875 -3.59346
11 1 1.80637 13.6613 9.7472 1.25743 -3.94771 -3.59362
12 1 3.82949 11.6381 9.74688 1.2575 -3.94776 -3.59337
13 1 5.85253 11.6379 7.72369 1.25863 -3.94828 -3.59343
14 1 7.8754 13.6608 7.72373 1.2589 -3.94915 -3.59352
15 1 5.85238 13.6609 9.74689 1.25833 -3.94893 -3.59326
16 1 7.87552 11.6379 9.74653 1.2591 -3.94804 -3.59296
17 1 9.89818 15.6839 7.72389 1.25791 -3.94867 -3.59352
18 1 11.921 1.52312 7.72408 1.25693 -3.94781 -3.59347
19 1 9.89798 1.52297 9.74696 1.25739 -3.94842 -3.59329
20 1 11.9212 15.6842 9.74701 1.25785 -3.94771 -3.59334
21 1 13.9442 15.6843 7.7242 1.25742 -3.9473 -3.59373
22 1 15.967 1.52335 7.72444 1.25789 -3.94751 -3.59348
23 1 13.944 1.52333 9.74727 1.2575 -3.94754 -3.59371
24 1 15.9672 15.6844 9.74737 1.25776 -3.94729 -3.59376
25 1 1.80619 15.6842 7.7244 1.25809 -3.94807 -3.59349
26 1 3.82902 1.52306 7.72435 1.25884 -3.94848 -3.59314
27 1 1.806 1.52329 9.74746 1.25838 -3.94799 -3.59394
28 1 3.82917 15.6841 9.74728 1.25817 -3.94876 -3.59365
29 1 5.85219 15.6839 7.72408 1.25859 -3.94946 -3.59328
30 1 7.87501 1.52283 7.72399 1.2579 -3.9488 -3.59315
31 1 5.852 1.52292 9.74715 1.25826 -3.94886 -3.5935
32 1 7.87517 15.6839 9.74692 1.25825 -3.94917 -3.59319
33 1 9.89797 3.54594 7.72386 1.25706 -3.94781 -3.59315
34 1 11.9211 5.56912 7.72378 1.25724 -3.94775 -3.5933
35 1 9.89808 5.56898 9.74666 1.25766 -3.94754 -3.59315
36 1 11.9209 3.54616 9.74698 1.25713 -3.94797 -3.59341
37 1 13.944 3.54629 7.72418 1.25719 -3.94771 -3.59341
38 1 15.9671 5.56934 7.72414 1.25784 -3.94776 -3.59335
39 1 13.9441 5.56932 9.74697 1.25762 -3.94813 -3.59356
40 1 15.967 3.54638 9.74733 1.25801 -3.94786 -3.59392
41 1 1.80599 3.54625 7.72437 1.25866 -3.94764 -3.59322
42 1 3.82911 5.56908 7.72405 1.25868 -3.94697 -3.59305
43 1 1.80609 5.56929 9.74716 1.25816 -3.94758 -3.59382
44 1 3.82897 3.5461 9.74724 1.25854 -3.94785 -3.59376
45 1 5.85199 3.5459 7.72406 1.25855 -3.94775 -3.59293
46 1 7.87511 5.56886 7.72369 1.25806 -3.94696 -3.59302
47 1 5.85209 5.56895 9.74685 1.25821 -3.947 -3.59339
48 1 7.87496 3.54588 9.74689 1.25767 -3.94797 -3.59328
49 1 9.89832 7.59194 7.72346 1.25833 -3.94724 -3.59329
50 1 11.9215 9.61512 7.72351 1.25855 -3.94775 -3.59362
51 1 9.89849 9.61498 9.74641 1.25918 -3.94743 -3.59294
52 1 11.9213 7.59216 9.74659 1.25824 -3.9478 -3.59315
53 1 13.9443 7.59229 7.72378 1.25765 -3.94794 -3.59347
54 1 15.9675 9.61535 7.72387 1.25736 -3.94764 -3.59358
55 1 13.9445 9.61533 9.74672 1.25812 -3.94767 -3.59325
56 1 15.9673 7.59238 9.74694 1.25766 -3.94786 -3.5936
57 1 1.80631 7.59226 7.72397 1.25784 -3.94728 -3.5933
58 1 3.82949 9.61507 7.72379 1.25789 -3.94722 -3.59333
59 1 1.80646 9.6153 9.7469 1.25723 -3.94734 -3.59349
60 1 3.82929 7.59212 9.74685 1.2579 -3.94688 -3.59348
61 1 5.85232 7.59191 7.72366 1.25856 -3.94658 -3.5931
62 1 7.8755 9.61485 7.72343 1.25906 -3.94732 -3.59338
63 1 5.85247 9.61495 9.74659 1.25829 -3.94706 -3.59315
64 1 7.8753 7.59189 9.7465 1.25849 -3.94684 -3.59304
65 1 9.89835 11.638 11.7695 1.25925 -3.94763 -3.59269
66 1 11.9212 13.6612 11.7698 1.25875 -3.94715 -3.59274
67 1 9.89799 13.6611 13.7927 1.25848 -3.94753 -3.59297
68 1 11.9211 11.6383 13.7926 1.25914 -3.94734 -3.59287
69 1 13.9443 11.6384 11.7698 1.25848 -3.94712 -3.59284
70 1 15.9672 13.6615 11.7702 1.25772 -3.94677 -3.59317
71 1 13.944 13.6615 13.793 1.25845 -3.9464 -3.59271
72 1 15.9671 11.6385 13.793 1.25772 -3.9471 -3.59291
73 1 1.80632 11.6384 11.77 1.257 -3.94729 -3.5933
74 1 3.82919 13.6612 11.7701 1.25733 -3.94802 -3.59337
75 1 1.80597 13.6614 13.7932 1.25727 -3.947 -3.59299
76 1 3.82909 11.6382 13.7929 1.25679 -3.94753 -3.59334
77 1 5.85233 11.638 11.7697 1.25777 -3.9478 -3.59315
78 1 7.87521 13.6609 11.7697 1.25837 -3.94841 -3.59293
79 1 5.85198 13.661 13.7929 1.25729 -3.94814 -3.59327
80 1 7.87512 11.638 13.7925 1.2582 -3.94779 -3.59332
81 1 9.898 15.684 11.7699 1.25796 -3.94811 -3.593
82 1 11.9208 1.52322 11.7701 1.25743 -3.94769 -3.59335
83 1 9.89759 1.52308 13.793 1.25691 -3.94782 -3.59339
84 1 11.9208 15.6843 13.793 1.25798 -3.94683 -3.59291
85 1 13.944 15.6844 11.7702 1.25804 -3.9468 -3.59322
86 1 15.9668 1.52345 11.7704 1.25811 -3.94739 -3.59379
87 1 13.9436 1.52345 13.7933 1.25791 -3.94703 -3.59314
88 1 15.9668 15.6845 13.7934 1.25806 -3.94645 -3.59292
89 1 1.80599 15.6844 11.7704 1.25781 -3.94752 -3.59363
90 1 3.82883 1.52316 11.7703 1.25801 -3.94828 -3.59394
91 1 1.80561 1.5234 13.7935 1.25816 -3.94745 -3.59342
92 1 3.82877 15.6842 13.7933 1.25741 -3.94786 -3.59329
93 1 5.85199 15.684 11.7701 1.25772 -3.94882 -3.59344
94 1 7.87482 1.52293 11.77 1.25734 -3.94858 -3.59349
95 1 5.85159 1.52304 13.7931 1.25713 -3.94824 -3.59366
96 1 7.87477 15.684 13.7929 1.2573 -3.94825 -3.59327
97 1 9.89778 3.54603 11.7699 1.25709 -3.94809 -3.59347
98 1 11.9209 5.56921 11.7698 1.25768 -3.94827 -3.59344
99 1 9.89768 5.56908 13.7927 1.25724 -3.94809 -3.59381
100 1 11.9206 3.54627 13.793 1.25723 -3.94804 -3.59349
101 1 13.9438 3.54638 11.7702 1.25774 -3.94805 -3.59372
102 1 15.9669 5.56943 11.7701 1.25801 -3.94832 -3.59391
103 1 13.9437 5.56942 13.793 1.25802 -3.94875 -3.59357
104 1 15.9666 3.54649 13.7933 1.25825 -3.94795 -3.59353
105 1 1.8058 3.54635 11.7704 1.25828 -3.94794 -3.59414
106 1 3.82892 5.56917 11.77 1.25782 -3.94747 -3.59406
107 1 1.8057 5.5694 13.7932 1.2579 -3.94813 -3.59388
108 1 3.82857 3.54621 13.7932 1.25772 -3.94786 -3.59391
109 1 5.85179 3.54599 11.77 1.25761 -3.94798 -3.59392
110 1 7.87491 5.56895 11.7697 1.25753 -3.94745 -3.5936
111 1 5.85168 5.56905 13.7928 1.25713 -3.94749 -3.59413
112 1 7.87455 3.54599 13.7929 1.25669 -3.94797 -3.5939
113 1 9.89813 7.59204 11.7695 1.25838 -3.94761 -3.59317
114 1 11.9213 9.61522 11.7695 1.25902 -3.94774 -3.59285
115 1 9.89809 9.61508 13.7924 1.2588 -3.9478 -3.59339
116 1 11.9209 7.59226 13.7926 1.25839 -3.94853 -3.59348
117 1 13.9441 7.59238 11.7698 1.25816 -3.94836 -3.59337
118 1 15.9673 9.61544 11.7699 1.25761 -3.9477 -3.59328
119 1 13.9441 9.61543 13.7927 1.25856 -3.9481 -3.5931
120 1 15.9669 7.59248 13.7929 1.25791 -3.94858 -3.59354
121 1 1.80612 7.59235 11.77 1.25748 -3.94771 -3.59381
122 1 3.82928 9.61518 11.7698 1.25713 -3.94723 -3.59351
123 1 1.80606 9.6154 13.7929 1.25704 -3.9477 -3.59344
124 1 3.8289 7.59222 13.7928 1.25712 -3.94752 -3.59393
125 1 5.85212 7.59201 11.7697 1.25767 -3.94694 -3.59362
126 1 7.87531 9.61495 11.7694 1.25856 -3.94729 -3.59306
127 1 5.85207 9.61505 13.7926 1.25727 -3.94739 -3.59373
128 1 7.8749 7.592 13.7925 1.2576 -3.94749 -3.5939
129 1 9.89798 11.6381 15.8155 1.25868 -3.94776 -3.5939
130 1 11.9208 13.6613 15.8158 1.25847 -3.94679 -3.59323
131 1 9.89786 13.6611 1.65469 1.258 -3.94778 -3.59418
132 1 11.921 11.6382 1.6546 1.2586 -3.94775 -3.59427
133 1 13.944 11.6385 15.8158 1.25853 -3.94727 -3.59314
134 1 15.9668 13.6615 15.8162 1.25788 -3.94642 -3.59264
135 1 13.9439 13.6614 1.65502 1.25804 -3.9466 -3.59328
136 1 15.967 11.6385 1.65498 1.25768 -3.94747 -3.59323
137 1 1.80596 11.6384 15.816 1.25704 -3.94742 -3.59307
138 1 3.82883 13.6612 15.8161 1.25703 -3.94768 -3.59307
139 1 1.80585 13.6614 1.65522 1.25746 -3.94722 -3.59269
140 1 3.82898 11.6382 1.65488 1.2571 -3.94794 -3.59351
141 1 5.85196 11.6381 15.8157 1.25717 -3.94792 -3.5938
142 1 7.87484 13.661 15.8157 1.2576 -3.94804 -3.59364
143 1 5.85185 13.661 1.65489 1.25745 -3.94842 -3.59359
144 1 7.87499 11.638 1.65451 1.25805 -3.94823 -3.59456
145 1 9.89762 15.6841 15.8159 1.25728 -3.94741 -3.5934
146 1 11.9204 1.52329 15.8161 1.25708 -3.94705 -3.59315
147 1 9.89746 1.52306 1.65496 1.2564 -3.94748 -3.59351
148 1 11.9206 15.6843 1.65501 1.25736 -3.94675 -3.59341
149 1 13.9436 15.6845 15.8162 1.25803 -3.94613 -3.59267
150 1 15.9665 1.52352 15.8164 1.25826 -3.94679 -3.59253
151 1 13.9435 1.52342 1.65529 1.25746 -3.94666 -3.59261
152 1 15.9666 15.6845 1.65538 1.25797 -3.94636 -3.59234
153 1 1.80563 15.6844 15.8164 1.25782 -3.94687 -3.59252
154 1 3.82846 1.52322 15.8164 1.2577 -3.94767 -3.59294
155 1 1.80548 1.52338 1.65548 1.2584 -3.94714 -3.59203
156 1 3.82865 15.6842 1.65529 1.25773 -3.94784 -3.59256
157 1 5.85162 15.684 15.8161 1.25708 -3.94814 -3.59323
158 1 7.87444 1.523 15.816 1.25652 -3.94791 -3.59353
159 1 5.85147 1.52302 1.65516 1.25733 -3.94794 -3.59289
160 1 7.87464 15.684 1.65492 1.25714 -3.9482 -3.5936
161 1 9.89741 3.54609 15.8159 1.25641 -3.94784 -3.59376
162 1 11.9205 5.56927 15.8158 1.25741 -3.94857 -3.59373
163 1 9.89756 5.56905 1.65465 1.25679 -3.9479 -3.59406
164 1 11.9204 3.54624 1.65498 1.25663 -3.94766 -3.59331
165 1 13.9434 3.54645 15.8162 1.25774 -3.94785 -3.59303
166 1 15.9666 5.56949 15.8161 1.25817 -3.94861 -3.59319
167 1 13.9436 5.5694 1.65498 1.25768 -3.94858 -3.59317
168 1 15.9664 3.54647 1.65535 1.25823 -3.94759 -3.59229
169 1 1.80543 3.54641 15.8164 1.2583 -3.94771 -3.59293
170 1 3.82855 5.56923 15.816 1.25753 -3.9477 -3.59362
171 1 1.80557 5.56937 1.65518 1.25823 -3.94796 -3.59267
172 1 3.82845 3.54619 1.65526 1.25813 -3.94751 -3.59253
173 1 5.85141 3.54606 15.816 1.25697 -3.94771 -3.59363
174 1 7.87454 5.569 15.8157 1.25675 -3.94767 -3.59418
175 1 5.85156 5.56902 1.65485 1.25734 -3.9473 -3.59355
176 1 7.87443 3.54596 1.65489 1.25655 -3.94757 -3.59355
177 1 9.89776 7.59209 15.8155 1.2578 -3.94822 -3.59424
178 1 11.9209 9.61527 15.8155 1.25878 -3.94831 -3.5938
179 1 9.89796 9.61505 1.65438 1.2584 -3.94819 -3.59475
180 1 11.9208 7.59223 1.65457 1.2579 -3.94868 -3.59417
181 1 13.9438 7.59243 15.8158 1.25823 -3.94901 -3.59352
182 1 15.9669 9.61549 15.8159 1.25779 -3.94824 -3.59326
183 1 13.944 9.6154 1.65471 1.25824 -3.94849 -3.59385
184 1 15.9668 7.59245 1.65495 1.25792 -3.94872 -3.59319
185 1 1.80576 7.5924 15.816 1.25751 -3.94827 -3.59348
186 1 3.82892 9.61523 15.8158 1.25685 -3.94772 -3.59373
187 1 1.80595 9.61537 1.65491 1.25729 -3.94807 -3.59335
188 1 3.82878 7.59219 1.65485 1.25751 -3.94765 -3.59351
189 1 5.85175 7.59206 15.8156 1.25709 -3.94748 -3.59419
190 1 7.87493 9.615 15.8154 1.25784 -3.94779 -3.59429
191 1 5.85195 9.61502 1.65458 1.25744 -3.94776 -3.59426
192 1 7.87478 7.59196 1.65448 1.25747 -3.9476 -3.59447
193 1 9.89816 11.638 3.67748 1.25862 -3.94825 -3.59486
194 1 11.921 13.6612 3.67781 1.25795 -3.94745 -3.59428
195 1 9.89826 13.6609 5.70069 1.25843 -3.94851 -3.59427
196 1 11.9214 11.6381 5.7006 1.25844 -3.94795 -3.59443
197 1 13.9442 11.6383 3.6778 1.25794 -3.94769 -3.59412
198 1 15.967 13.6614 3.67818 1.25757 -3.94705 -3.5932
199 1 13.9442 13.6613 5.70101 1.25757 -3.94728 -3.59399
200 1 15.9674 11.6384 5.70097 1.25733 -3.94766 -3.59377
201 1 1.80615 11.6383 3.67801 1.25731 -3.94784 -3.59333
202 1 3.82903 13.6611 3.67809 1.25776 -3.94838 -3.59314
203 1 1.80625 13.6613 5.70121 1.25761 -3.94795 -3.59331
204 1 3.82938 11.6381 5.70088 1.25783 -3.94819 -3.59354
205 1 5.85216 11.6379 3.67768 1.258 -3.94841 -3.5941
206 1 7.87503 13.6609 3.67772 1.25813 -3.94879 -3.59423
207 1 5.85226 13.6609 5.70089 1.25848 -3.9492 -3.59361
208 1 7.87539 11.6378 5.70052 1.25894 -3.94848 -3.5942
209 1 9.89781 15.684 3.67789 1.25724 -3.94798 -3.59389
210 1 11.9206 1.52318 3.67808 1.25656 -3.94718 -3.5933
211 1 9.89785 1.52294 5.70096 1.25686 -3.94806 -3.59337
212 1 11.921 15.6841 5.70101 1.25724 -3.94757 -3.59382
213 1 13.9438 15.6844 3.67821 1.25738 -3.94662 -3.59319
214 1 15.9666 1.52341 3.67845 1.258 -3.94691 -3.59225
215 1 13.9439 1.5233 5.70128 1.25707 -3.94715 -3.59317
216 1 15.967 15.6844 5.70137 1.25766 -3.94717 -3.5932
217 1 1.80582 15.6843 3.67841 1.25811 -3.94741 -3.59237
218 1 3.82865 1.52313 3.67836 1.25853 -3.94787 -3.59218
219 1 1.80588 1.52326 5.70148 1.25863 -3.94768 -3.59252
220 1 3.82905 15.6841 5.70129 1.2585 -3.94872 -3.59289
221 1 5.85182 15.6839 3.67808 1.25796 -3.94878 -3.59309
222 1 7.87464 1.5229 3.67799 1.25709 -3.94814 -3.59319
223 1 5.85187 1.5229 5.70116 1.25841 -3.94858 -3.59275
224 1 7.87504 15.6838 5.70092 1.25807 -3.94913 -3.59354
225 1 9.8976 3.546 3.67786 1.25638 -3.94755 -3.59341
226 1 11.9207 5.56918 3.67777 1.25694 -3.94804 -3.59359
227 1 9.89795 5.56895 5.70065 1.25722 -3.94736 -3.5934
228 1 11.9208 3.54613 5.70098 1.25653 -3.9476 -3.59324
229 1 13.9436 3.54635 3.67819 1.25717 -3.94752 -3.59274
230 1 15.9667 5.5694 3.67815 1.25803 -3.94807 -3.59259
231 1 13.944 5.5693 5.70098 1.25728 -3.94796 -3.59318
232 1 15.9668 3.54635 5.70135 1.25799 -3.9475 -3.59267
233 1 1.80562 3.54631 3.67839 1.25871 -3.94743 -3.59199
234 1 3.82875 5.56913 3.67806 1.2584 -3.94721 -3.59259
235 1 1.80597 5.56926 5.70118 1.25849 -3.94738 -3.59262
236 1 3.82885 3.54608 5.70127 1.25895 -3.9475 -3.59238
237 1 5.85161 3.54596 3.67806 1.2579 -3.94745 -3.59266
238 1 7.87473 5.56891 3.67768 1.25732 -3.94717 -3.59357
239 1 5.85197 5.56892 5.70085 1.25842 -3.94681 -3.59285
240 1 7.87483 3.54585 5.70089 1.25748 -3.94762 -3.59296
241 1 9.89795 7.59199 3.67745 1.2578 -3.94781 -3.59436
242 1 11.9211 9.61517 3.6775 1.25834 -3.94831 -3.5946
243 1 9.89835 9.61494 5.70039 1.25878 -3.94784 -3.59429
244 1 11.9212 7.59213 5.70058 1.25776 -3.94795 -3.59382
245 1 13.9439 7.59234 3.67778 1.25771 -3.94858 -3.59365
246 1 15.9671 9.6154 3.67787 1.25759 -3.9482 -3.59356
247 1 13.9443 9.61529 5.70071 1.25778 -3.94806 -3.594
248 1 15.9672 7.59235 5.70095 1.25768 -3.94798 -3.59327
249 1 1.80595 7.59231 3.67798 1.25792 -3.94786 -3.59295
250 1 3.82912 9.61512 3.67779 1.2576 -3.94772 -3.59359
251 1 1.80634 9.61526 5.70091 1.25749 -3.94768 -3.59339
252 1 3.82918 7.59209 5.70086 1.25829 -3.94696 -3.59303
253 1 5.85195 7.59196 3.67765 1.25796 -3.94709 -3.59369
254 1 7.87513 9.6149 3.67741 1.25836 -3.94781 -3.5946
255 1 5.85235 9.61491 5.70059 1.25846 -3.94744 -3.59369
256 1 7.87518 7.59186 5.70049 1.25835 -3.94694 -3.59364
