ITEM: TIMESTEP
140000000
ITEM: NUMBER OF ATOMS
256
ITEM: BOX BOUNDS pp pp pp
0.0000000000000000e+00 1.6184000000000001e+01
0.0000000000000000e+00 1.6184000000000001e+01
0.0000000000000000e+00 1.6184000000000001e+01
ITEM: ATOMS id type x y z vx vy vz
1 1 13.3493 6.86683 9.41868 0.782144 -3.01052 -4.18899
2 1 15.3723 8.88983 9.41868 0.782142 -3.01052 -4.18899
3 1 13.3493 8.88983 11.4417 0.782141 -3.01052 -4.18899
4 1 15.3723 6.86683 11.4417 0.782144 -3.01052 -4.18899
5 1 1.21129 6.86683 9.41868 0.782143 -3.01051 -4.18899
6 1 3.23429 8.88983 9.41868 0.782142 -3.01051 -4.18899
7 1 1.21129 8.88983 11.4417 0.782139 -3.01051 -4.18899
8 1 3.23429 6.86683 11.4417 0.782147 -3.01052 -4.189
9 1 5.25729 6.86683 9.41868 0.782146 -3.01052 -4.18899
10 1 7.28029 8.88983 9.41868 0.782141 -3.01052 -4.18899
11 1 5.25729 8.88983 11.4417 0.782141 -3.01052 -4.18899
12 1 7.28029 6.86683 11.4417 0.782145 -3.01052 -4.18899
13 1 9.30329 6.86683 9.41868 0.782142 -3.01053 -4.18899
14 1 11.3263 8.88983 9.41868 0.78214 -3.01052 -4.18898
15 1 9.30329 8.88983 11.4417 0.782144 -3.01052 -4.18899
16 1 11.3263 6.86683 11.4417 0.782145 -3.01052 -4.189
17 1 13.3493 10.9128 9.41868 0.782142 -3.01052 -4.18899
18 1 15.3723 12.9358 9.41868 0.782146 -3.01051 -4.18899
19 1 13.3493 12.9358 11.4417 0.78215 -3.01052 -4.18899
20 1 15.3723 10.9128 11.4417 0.782143 -3.01052 -4.18899
21 1 1.21129 10.9128 9.41868 0.782147 -3.01052 -4.18899
22 1 3.23429 12.9358 9.41868 0.782148 -3.01052 -4.18899
23 1 1.21129 12.9358 11.4417 0.782151 -3.01052 -4.18899
24 1 3.23429 10.9128 11.4417 0.78214 -3.01052 -4.18899
25 1 5.25729 10.9128 9.41868 0.782151 -3.01052 -4.18899
26 1 7.28029 12.9358 9.41868 0.782141 -3.01051 -4.18899
27 1 5.25729 12.9358 11.4417 0.782146 -3.01053 -4.18899
28 1 7.28029 10.9128 11.4417 0.782141 -3.01052 -4.18899
29 1 9.30329 10.9128 9.41868 0.782142 -3.01052 -4.18899
30 1 11.3263 12.9358 9.41868 0.782146 -3.01052 -4.18899
31 1 9.30329 12.9358 11.4417 0.782141 -3.01052 -4.18899
32 1 11.3263 10.9128 11.4417 0.782149 -3.01051 -4.18899
33 1 13.3493 14.9588 9.41868 0.782147 -3.01052 -4.18899
34 1 15.3723 0.797834 9.41868 0.782141 -3.01051 -4.18899
35 1 13.3493 0.797834 11.4417 0.782146 -3.01052 -4.18899
36 1 15.3723 14.9588 11.4417 0.782145 -3.01052 -4.18899
37 1 1.21129 14.9588 9.41868 0.782148 -3.01052 -4.18899
38 1 3.23429 0.797834 9.41868 0.782138 -3.01052 -4.18899
39 1 1.21129 0.797834 11.4417 0.782146 -3.01052 -4.18899
40 1 3.23429 14.9588 11.4417 0.78214 -3.01052 -4.18899
41 1 5.25729 14.9588 9.41868 0.782148 -3.01052 -4.18899
42 1 7.28029 0.797834 9.41868 0.782144 -3.01052 -4.18899
43 1 5.25729 0.797834 11.4417 0.782146 -3.01052 -4.18899
44 1 7.28029 14.9588 11.4417 0.782143 -3.01052 -4.18899
45 1 9.30329 14.9588 9.41868 0.782143 -3.01051 -4.18899
46 1 11.3263 0.797834 9.41868 0.782145 -3.01052 -4.18899
47 1 9.30329 0.797834 11.4417 0.782148 -3.01052 -4.18899
48 1 11.3263 14.9588 11.4417 0.782146 -3.01052 -4.18899
49 1 13.3493 2.82083 9.41868 0.782149 -3.01052 -4.18899
50 1 15.3723 4.84383 9.41868 0.782143 -3.01052 -4.18899
51 1 13.3493 4.84383 11.4417 0.782143 -3.01052 -4.18899
52 1 15.3723 2.82083 11.4417 0.782146 -3.01052 -4.189
53 1 1.21129 2.82083 9.41868 0.782147 -3.01052 -4.18899
54 1 3.23429 4.84383 9.41868 0.78214 -3.01052 -4.18899
55 1 1.21129 4.84383 11.4417 0.78215 -3.01052 -4.18899
56 1 3.23429 2.82083 11.4417 0.782142 -3.01052 -4.18899
57 1 5.25729 2.82083 9.41868 0.782143 -3.01052 -4.18899
58 1 7.28029 4.84383 9.41868 0.782147 -3.01052 -4.18899
59 1 5.25729 4.84383 11.4417 0.782149 -3.01052 -4.18899
60 1 7.28029 2.82083 11.4417 0.782137 -3.01052 -4.18899
61 1 9.30329 2.82083 9.41868 0.782143 -3.01052 -4.18899
62 1 11.3263 4.84383 9.41868 0.782147 -3.01051 -4.18899
63 1 9.30329 4.84383 11.4417 0.782143 -3.01052 -4.189
64 1 11.3263 2.82083 11.4417 0.782144 -3.01052 -4.18899
65 1 13.3493 6.86683 13.4647 0.782146 -3.01051 -4.18899
66 1 15.3723 8.88983 13.4647 0.782148 -3.01051 -4.18899
67 1 13.3493 8.88983 15.4877 0.782144 -3.01052 -4.18899
68 1 15.3723 6.86683 15.4877 0.782147 -3.01053 -4.18899
69 1 1.21129 6.86683 13.4647 0.782146 -3.01052 -4.18899
70 1 3.23429 8.88983 13.4647 0.782149 -3.01051 -4.18899
71 1 1.21129 8.88983 15.4877 0.782143 -3.01052 -4.18899
72 1 3.23429 6.86683 15.4877 0.782149 -3.01051 -4.18898
73 1 5.25729 6.86683 13.4647 0.782142 -3.01052 -4.189
74 1 7.28029 8.88983 13.4647 0.782139 -3.01052 -4.18899
75 1 5.25729 8.88983 15.4877 0.782141 -3.01051 -4.18899
76 1 7.28029 6.86683 15.4877 0.782148 -3.01052 -4.18899
77 1 9.30329 6.86683 13.4647 0.782141 -3.01052 -4.18899
78 1 11.3263 8.88983 13.4647 0.782142 -3.01052 -4.18899
79 1 9.30329 8.88983 15.4877 0.782147 -3.01051 -4.18899
80 1 11.3263 6.86683 15.4877 0.782139 -3.01052 -4.18899
81 1 13.3493 10.9128 13.4647 0.78214 -3.01052 -4.18899
82 1 15.3723 12.9358 13.4647 0.782149 -3.01052 -4.189
83 1 13.3493 12.9358 15.4877 0.782145 -3.01052 -4.18899
84 1 15.3723 10.9128 15.4877 0.782143 -3.01052 -4.18898
85 1 1.21129 10.9128 13.4647 0.782148 -3.01052 -4.18899
86 1 3.23429 12.9358 13.4647 0.782148 -3.01052 -4.18899
87 1 1.21129 12.9358 15.4877 0.782139 -3.01052 -4.18899
88 1 3.23429 10.9128 15.4877 0.782146 -3.01051 -4.18899
89 1 5.25729 10.9128 13.4647 0.782145 -3.01052 -4.18899
90 1 7.28029 12.9358 13.4647 0.782148 -3.01052 -4.18899
91 1 5.25729 12.9358 15.4877 0.78214 -3.01052 -4.18899
92 1 7.28029 10.9128 15.4877 0.782149 -3.01052 -4.18899
93 1 9.30329 10.9128 13.4647 0.782141 -3.01052 -4.18899
94 1 11.3263 12.9358 13.4647 0.782145 -3.01052 -4.18899
95 1 9.30329 12.9358 15.4877 0.782142 -3.01051 -4.18899
96 1 11.3263 10.9128 15.4877 0.782145 -3.01053 -4.18899
97 1 13.3493 14.9588 13.4647 0.782143 -3.01052 -4.18899
98 1 15.3723 0.797834 13.4647 0.782147 -3.01052 -4.18899
99 1 13.3493 0.797834 15.4877 0.782141 -3.01051 -4.18899
100 1 15.3723 14.9588 15.4877 0.782142 -3.01052 -4.18899
101 1 1.21129 14.9588 13.4647 0.782145 -3.01052 -4.18899
102 1 3.23429 0.797834 13.4647 0.782145 -3.01052 -4.18898
103 1 1.21129 0.797834 15.4877 0.782138 -3.01053 -4.18899
104 1 3.23429 14.9588 15.4877 0.782144 -3.01052 -4.18899
105 1 5.25729 14.9588 13.4647 0.782143 -3.01051 -4.18899
106 1 7.28029 0.797834 13.4647 0.782145 -3.01052 -4.18899
107 1 5.25729 0.797834 15.4877 0.782151 -3.01052 -4.18899
108 1 7.28029 14.9588 15.4877 0.782144 -3.01052 -4.18899
109 1 9.30329 14.9588 13.4647 0.782142 -3.01052 -4.18899
110 1 11.3263 0.797834 13.4647 0.782143 -3.01052 -4.18899
111 1 9.30329 0.797834 15.4877 0.782143 -3.01052 -4.18899
112 1 11.3263 14.9588 15.4877 0.782145 -3.01051 -4.18899
113 1 13.3493 2.82083 13.4647 0.782147 -3.01052 -4.18899
114 1 15.3723 4.84383 13.4647 0.782137 -3.01051 -4.18899
115 1 13.3493 4.84383 15.4877 0.78214 -3.01052 -4.18898
116 1 15.3723 2.82083 15.4877 0.782143 -3.01052 -4.18899
117 1 1.21129 2.82083 13.4647 0.782144 -3.01052 -4.18899
118 1 3.23429 4.84383 13.4647 0.782144 -3.01052 -4.18899
119 1 1.21129 4.84383 15.4877 0.782141 -3.01051 -4.18899
120 1 3.23429 2.82083 15.4877 0.782146 -3.01051 -4.18899
121 1 5.25729 2.82083 13.4647 0.782142 -3.01052 -4.18899
122 1 7.28029 4.84383 13.4647 0.782142 -3.01052 -4.18898
123 1 5.25729 4.84383 15.4877 0.782147 -3.01052 -4.18899
124 1 7.28029 2.82083 15.4877 0.782144 -3.01052 -4.18899
125 1 9.30329 2.82083 13.4647 0.782147 -3.01052 -4.18899
126 1 11.3263 4.84383 13.4647 0.782147 -3.01052 -4.18899
127 1 9.30329 4.84383 15.4877 0.782145 -3.01052 -4.189
128 1 11.3263 2.82083 15.4877 0.782148 -3.01052 -4.18899
129 1 13.3493 6.86683 1.32668 0.782143 -3.01052 -4.18899
130 1 15.3723 8.88983 1.32668 0.782143 -3.01052 -4.18899
131 1 13.3493 8.88983 3.34968 0.782146 -3.01052 -4.18899
132 1 15.3723 6.86683 3.34968 0.782145 -3.01052 -4.18899
133 1 1.21129 6.86683 1.32668 0.782143 -3.01052 -4.18899
134 1 3.23429 8.88983 1.32668 0.782146 -3.01051 -4.18899
135 1 1.21129 8.88983 3.34968 0.782143 -3.01052 -4.18899
136 1 3.23429 6.86683 3.34968 0.782144 -3.01052 -4.18899
137 1 5.25729 6.86683 1.32668 0.782142 -3.01052 -4.18899
138 1 7.28029 8.88983 1.32668 0.782146 -3.01052 -4.18899
139 1 5.25729 8.88983 3.34968 0.782141 -3.01051 -4.18899
140 1 7.28029 6.86683 3.34968 0.782138 -3.01052 -4.18899
141 1 9.30329 6.86683 1.32668 0.782148 -3.01052 -4.18899
142 1 11.3263 8.88983 1.32668 0.782145 -3.01051 -4.18899
143 1 9.30329 8.88983 3.34968 0.782144 -3.01052 -4.18899
144 1 11.3263 6.86683 3.34968 0.782144 -3.01052 -4.18899
145 1 13.3493 10.9128 1.32668 0.782145 -3.01052 -4.18898
146 1 15.3723 12.9358 1.32668 0.782147 -3.01052 -4.18899
147 1 13.3493 12.9358 3.34968 0.782149 -3.01052 -4.18899
148 1 15.3723 10.9128 3.34968 0.782144 -3.01052 -4.18899
149 1 1.21129 10.9128 1.32668 0.782151 -3.01052 -4.18899
150 1 3.23429 12.9358 1.32668 0.782138 -3.01052 -4.18899
151 1 1.21129 12.9358 3.34968 0.782143 -3.01052 -4.18899
152 1 3.23429 10.9128 3.34968 0.782143 -3.01052 -4.18899
153 1 5.25729 10.9128 1.32668 0.78214 -3.01052 -4.18898
154 1 7.28029 12.9358 1.32668 0.782144 -3.01052 -4.18899
155 1 5.25729 12.9358 3.34968 0.782141 -3.01052 -4.189
156 1 7.28029 10.9128 3.34968 0.782141 -3.01052 -4.18899
157 1 9.30329 10.9128 1.32668 0.782141 -3.01052 -4.189
158 1 11.3263 12.9358 1.32668 0.782148 -3.01052 -4.18899
159 1 9.30329 12.9358 3.34968 0.78214 -3.01052 -4.18899
160 1 11.3263 10.9128 3.34968 0.782149 -3.01052 -4.18899
161 1 13.3493 14.9588 1.32668 0.782139 -3.01052 -4.18899
162 1 15.3723 0.797834 1.32668 0.782138 -3.01052 -4.18899
163 1 13.3493 0.797834 3.34968 0.782141 -3.01052 -4.18899
164 1 15.3723 14.9588 3.34968 0.782143 -3.01052 -4.18899
165 1 1.21129 14.9588 1.32668 0.782143 -3.01052 -4.18899
166 1 3.23429 0.797834 1.32668 0.782146 -3.01052 -4.18899
167 1 1.21129 0.797834 3.34968 0.782145 -3.01052 -4.18899
168 1 3.23429 14.9588 3.34968 0.782141 -3.01053 -4.189
169 1 5.25729 14.9588 1.32668 0.782143 -3.01051 -4.18899
170 1 7.28029 0.797834 1.32668 0.782145 -3.01052 -4.18899
171 1 5.25729 0.797834 3.34968 0.782142 -3.01052 -4.18899
172 1 7.28029 14.9588 3.34968 0.782148 -3.01052 -4.18899
173 1 9.30329 14.9588 1.32668 0.782145 -3.01052 -4.18899
174 1 11.3263 0.797834 1.32668 0.782145 -3.01052 -4.18899
175 1 9.30329 0.797834 3.34968 0.782141 -3.01052 -4.18899
176 1 11.3263 14.9588 3.34968 0.782144 -3.01052 -4.18899
177 1 13.3493 2.82083 1.32668 0.782139 -3.01052 -4.18899
178 1 15.3723 4.84383 1.32668 0.782149 -3.01052 -4.18899
179 1 13.3493 4.84383 3.34968 0.782139 -3.01053 -4.18899
180 1 15.3723 2.82083 3.34968 0.782141 -3.01052 -4.18899
181 1 1.21129 2.82083 1.32668 0.78215 -3.01052 -4.18899
182 1 3.23429 4.84383 1.32668 0.78214 -3.01052 -4.18899
183 1 1.21129 4.84383 3.34968 0.782142 -3.01052 -4.18899
184 1 3.23429 2.82083 3.34968 0.782151 -3.01052 -4.18899
185 1 5.25729 2.82083 1.32668 0.782147 -3.01052 -4.18899
186 1 7.28029 4.84383 1.32668 0.782147 -3.01052 -4.18899
187 1 5.25729 4.84383 3.34968 0.782144 -3.01052 -4.18899
188 1 7.28029 2.82083 3.34968 0.782142 -3.01051 -4.18899
189 1 9.30329 2.82083 1.32668 0.782143 -3.01051 -4.18899
190 1 11.3263 4.84383 1.32668 0.782145 -3.01052 -4.18899
191 1 9.30329 4.84383 3.34968 0.782146 -3.01052 -4.18899
192 1 11.3263 2.82083 3.34968 0.782145 -3.01052 -4.18898
193 1 13.3493 6.86683 5.37268 0.782143 -3.01052 -4.189
194 1 15.3723 8.88983 5.37268 0.782146 -3.01052 -4.18899
195 1 13.3493 8.88983 7.39568 0.782142 -3.01051 -4.18899
196 1 15.3723 6.86683 7.39568 0.782143 -3.01052 -4.18899
197 1 1.21129 6.86683 5.37268 0.782139 -3.01051 -4.18899
198 1 3.23429 8.88983 5.37268 0.782143 -3.01052 -4.18899
199 1 1.21129 8.88983 7.39568 0.782145 -3.01051 -4.18899
200 1 3.23429 6.86683 7.39568 0.782146 -3.01052 -4.18899
201 1 5.25729 6.86683 5.37268 0.782147 -3.01052 -4.18899
202 1 7.28029 8.88983 5.37268 0.782147 -3.01052 -4.18899
203 1 5.25729 8.88983 7.39568 0.782142 -3.01051 -4.18899
204 1 7.28029 6.86683 7.39568 0.782142 -3.01051 -4.18899
205 1 9.30329 6.86683 5.37268 0.782145 -3.01052 -4.18899
206 1 11.3263 8.88983 5.37268 0.782144 -3.01052 -4.18899
207 1 9.30329 8.88983 7.39568 0.78214 -3.01051 -4.18899
208 1 11.3263 6.86683 7.39568 0.782144 -3.01052 -4.18899
209 1 13.3493 10.9128 5.37268 0.782149 -3.01052 -4.18899
210 1 15.3723 12.9358 5.37268 0.78214 -3.01052 -4.18899
211 1 13.3493 12.9358 7.39568 0.782143 -3.01052 -4.18899
212 1 15.3723 10.9128 7.39568 0.782148 -3.01052 -4.18899
213 1 1.21129 10.9128 5.37268 0.782147 -3.01052 -4.18898
214 1 3.23429 12.9358 5.37268 0.782141 -3.01051 -4.18899
215 1 1.21129 12.9358 7.39568 0.782145 -3.01051 -4.18898
216 1 3.23429 10.9128 7.39568 0.782139 -3.01052 -4.18899
217 1 5.25729 10.9128 5.37268 0.782147 -3.01052 -4.18899
218 1 7.28029 12.9358 5.37268 0.782141 -3.01052 -4.18899
219 1 5.25729 12.9358 7.39568 0.782145 -3.01052 -4.18899
220 1 7.28029 10.9128 7.39568 0.782143 -3.01052 -4.189
221 1 9.30329 10.9128 5.37268 0.782143 -3.01052 -4.18899
222 1 11.3263 12.9358 5.37268 0.782149 -3.01052 -4.18899
223 1 9.30329 12.9358 7.39568 0.782148 -3.01052 -4.18899
224 1 11.3263 10.9128 7.39568 0.782144 -3.01051 -4.18899
225 1 13.3493 14.9588 5.37268 0.782142 -3.01051 -4.18899
226 1 15.3723 0.797834 5.37268 0.782146 -3.01052 -4.18899
227 1 13.3493 0.797834 7.39568 0.782148 -3.01052 -4.18899
228 1 15.3723 14.9588 7.39568 0.782141 -3.01052 -4.189
229 1 1.21129 14.9588 5.37268 0.782145 -3.01051 -4.18899
230 1 3.23429 0.797834 5.37268 0.782144 -3.01052 -4.18899
231 1 1.21129 0.797834 7.39568 0.782143 -3.01052 -4.18899
232 1 3.23429 14.9588 7.39568 0.782143 -3.01052 -4.18899
233 1 5.25729 14.9588 5.37268 0.782147 -3.01051 -4.18899
234 1 7.28029 0.797834 5.37268 0.782145 -3.01052 -4.18899
235 1 5.25729 0.797834 7.39568 0.782147 -3.01052 -4.18899
236 1 7.28029 14.9588 7.39568 0.782148 -3.01052 -4.18899
237 1 9.30329 14.9588 5.37268 0.782143 -3.01052 -4.18899
238 1 11.3263 0.797834 5.37268 0.782144 -3.01052 -4.18899
239 1 9.30329 0.797834 7.39568 0.782148 -3.01052 -4.18899
240 1 11.3263 14.9588 7.39568 0.782146 -3.01052 -4.18899
241 1 13.3493 2.82083 5.37268 0.782144 -3.01052 -4.18899
242 1 15.3723 4.84383 5.37268 0.782148 -3.01052 -4.18899
243 1 13.3493 4.84383 7.39568 0.782149 -3.01052 -4.18899
244 1 15.3723 2.82083 7.39568 0.782148 -3.01051 -4.18899
245 1 1.21129 2.82083 5.37268 0.78214 -3.01052 -4.18899
246 1 3.23429 4.84383 5.37268 0.782147 -3.01052 -4.18899
247 1 1.21129 4.84383 7.39568 0.782142 -3.01052 -4.18898
248 1 3.23429 2.82083 7.39568 0.782139 -3.01052 -4.18899
249 1 5.25729 2.82083 5.37268 0.782145 -3.01052 -4.18899
250 1 7.28029 4.84383 5.37268 0.782143 -3.01052 -4.18899
251 1 5.25729 4.84383 7.39568 0.782144 -3.01051 -4.18899
252 1 7.28029 2.82083 7.39568 0.782147 -3.01052 -4.18899
253 1 9.30329 2.82083 5.37268 0.782143 -3.01052 -4.18899
254 1 11.3263 4.84383 5.37268 0.782146 -3.01052 -4.18899
255 1 9.30329 4.84383 7.39568 0.782146 -3.01052 -4.18899
256 1 11.3263 2.82083 7.39568 0.78214 -3.01052 -4.18899
