ITEM: TIMESTEP
108000000
ITEM: NUMBER OF ATOMS
256
ITEM: BOX BOUNDS pp pp pp
0.0000000000000000e+00 1.6184000000000001e+01
0.0000000000000000e+00 1.6184000000000001e+01
0.0000000000000000e+00 1.6184000000000001e+01
ITEM: ATOMS id type x y z vx vy vz
1 1 8.3126 0.0937759 4.72258 0.803392 -3.09229 -4.30278
2 1 10.3356 2.11678 4.72258 0.803389 -3.0923 -4.30278
3 1 8.3126 2.11678 6.74558 0.803395 -3.0923 -4.30278
4 1 10.3356 0.0937759 6.74558 0.803391 -3.0923 -4.30278
5 1 12.3586 0.0937755 4.72258 0.803387 -3.0923 -4.30278
6 1 14.3816 2.11678 4.72258 0.803391 -3.0923 -4.30278
7 1 12.3586 2.11678 6.74558 0.803397 -3.0923 -4.30278
8 1 14.3816 0.0937758 6.74558 0.803386 -3.0923 -4.30278
9 1 0.220603 0.0937758 4.72258 0.803388 -3.0923 -4.30278
10 1 2.2436 2.11678 4.72258 0.803392 -3.0923 -4.30278
11 1 0.220603 2.11678 6.74558 0.803388 -3.09229 -4.30278
12 1 2.2436 0.0937757 6.74558 0.803394 -3.0923 -4.30278
13 1 4.2666 0.0937757 4.72258 0.80339 -3.09229 -4.30278
14 1 6.2896 2.11678 4.72258 0.803393 -3.09229 -4.30278
15 1 4.2666 2.11678 6.74558 0.803392 -3.09229 -4.30278
16 1 6.2896 0.093776 6.74558 0.803388 -3.0923 -4.30278
17 1 8.3126 4.13978 4.72258 0.803394 -3.09229 -4.30278
18 1 10.3356 6.16278 4.72258 0.80339 -3.09229 -4.30278
19 1 8.3126 6.16278 6.74558 0.803387 -3.0923 -4.30278
20 1 10.3356 4.13978 6.74558 0.803395 -3.09229 -4.30278
21 1 12.3586 4.13978 4.72258 0.803391 -3.0923 -4.30277
22 1 14.3816 6.16278 4.72258 0.803389 -3.0923 -4.30278
23 1 12.3586 6.16278 6.74558 0.803384 -3.0923 -4.30279
24 1 14.3816 4.13978 6.74558 0.803386 -3.0923 -4.30278
25 1 0.220603 4.13978 4.72258 0.803395 -3.0923 -4.30278
26 1 2.2436 6.16278 4.72258 0.80339 -3.0923 -4.30279
27 1 0.220603 6.16278 6.74558 0.803388 -3.09229 -4.30278
28 1 2.2436 4.13978 6.74558 0.803393 -3.0923 -4.30278
29 1 4.2666 4.13978 4.72258 0.803383 -3.0923 -4.30278
30 1 6.2896 6.16278 4.72258 0.803389 -3.0923 -4.30278
31 1 4.2666 6.16278 6.74558 0.803392 -3.0923 -4.30278
32 1 6.2896 4.13978 6.74558 0.803387 -3.09229 -4.30278
33 1 8.3126 8.18578 4.72258 0.803392 -3.0923 -4.30278
34 1 10.3356 10.2088 4.72258 0.803393 -3.0923 -4.30278
35 1 8.3126 10.2088 6.74558 0.803389 -3.09229 -4.30278
36 1 10.3356 8.18578 6.74558 0.80339 -3.09229 -4.30278
37 1 12.3586 8.18578 4.72258 0.803387 -3.09229 -4.30278
38 1 14.3816 10.2088 4.72258 0.803393 -3.0923 -4.30279
39 1 12.3586 10.2088 6.74558 0.803387 -3.0923 -4.30279
40 1 14.3816 8.18578 6.74558 0.803395 -3.0923 -4.30278
41 1 0.220603 8.18578 4.72258 0.803392 -3.0923 -4.30278
42 1 2.2436 10.2088 4.72258 0.803391 -3.0923 -4.30278
43 1 0.220603 10.2088 6.74558 0.803387 -3.0923 -4.30279
44 1 2.2436 8.18578 6.74558 0.803389 -3.09229 -4.30278
45 1 4.2666 8.18578 4.72258 0.803388 -3.09229 -4.30278
46 1 6.2896 10.2088 4.72258 0.803391 -3.0923 -4.30278
47 1 4.2666 10.2088 6.74558 0.80339 -3.0923 -4.30277
48 1 6.2896 8.18578 6.74558 0.80339 -3.0923 -4.30278
49 1 8.3126 12.2318 4.72258 0.803389 -3.0923 -4.30279
50 1 10.3356 14.2548 4.72258 0.80339 -3.0923 -4.30277
51 1 8.3126 14.2548 6.74558 0.80339 -3.0923 -4.30278
52 1 10.3356 12.2318 6.74558 0.803387 -3.09229 -4.30278
53 1 12.3586 12.2318 4.72258 0.803389 -3.0923 -4.30277
54 1 14.3816 14.2548 4.72258 0.803394 -3.0923 -4.30278
55 1 12.3586 14.2548 6.74558 0.803387 -3.09229 -4.30278
56 1 14.3816 12.2318 6.74558 0.803386 -3.0923 -4.30278
57 1 0.220603 12.2318 4.72258 0.803393 -3.0923 -4.30278
58 1 2.2436 14.2548 4.72258 0.803386 -3.0923 -4.30278
59 1 0.220603 14.2548 6.74558 0.80339 -3.09229 -4.30278
60 1 2.2436 12.2318 6.74558 0.803395 -3.0923 -4.30278
61 1 4.2666 12.2318 4.72258 0.803384 -3.0923 -4.30278
62 1 6.2896 14.2548 4.72258 0.803389 -3.0923 -4.30278
63 1 4.2666 14.2548 6.74558 0.803391 -3.0923 -4.30278
64 1 6.2896 12.2318 6.74558 0.803395 -3.0923 -4.30278
65 1 8.3126 0.0937759 8.76858 0.80339 -3.09229 -4.30278
66 1 10.3356 2.11678 8.76858 0.803388 -3.0923 -4.30279
67 1 8.3126 2.11678 10.7916 0.803389 -3.0923 -4.30278
68 1 10.3356 0.0937758 10.7916 0.803386 -3.0923 -4.30278
69 1 12.3586 0.0937758 8.76858 0.803396 -3.0923 -4.30278
70 1 14.3816 2.11678 8.76858 0.803387 -3.0923 -4.30277
71 1 12.3586 2.11678 10.7916 0.803387 -3.0923 -4.30278
72 1 14.3816 0.0937758 10.7916 0.803386 -3.0923 -4.30278
73 1 0.220603 0.0937757 8.76858 0.803388 -3.0923 -4.30278
74 1 2.2436 2.11678 8.76858 0.803393 -3.0923 -4.30277
75 1 0.220603 2.11678 10.7916 0.803398 -3.0923 -4.30278
76 1 2.2436 0.0937758 10.7916 0.803393 -3.09229 -4.30278
77 1 4.2666 0.0937761 8.76858 0.803391 -3.09229 -4.30278
78 1 6.2896 2.11678 8.76858 0.803388 -3.09229 -4.30278
79 1 4.2666 2.11678 10.7916 0.803397 -3.09229 -4.30278
80 1 6.2896 0.093776 10.7916 0.803394 -3.0923 -4.30278
81 1 8.3126 4.13978 8.76858 0.803391 -3.0923 -4.30278
82 1 10.3356 6.16278 8.76858 0.803388 -3.0923 -4.30278
83 1 8.3126 6.16278 10.7916 0.803389 -3.0923 -4.30278
84 1 10.3356 4.13978 10.7916 0.803391 -3.09229 -4.30278
85 1 12.3586 4.13978 8.76858 0.803392 -3.09229 -4.30278
86 1 14.3816 6.16278 8.76858 0.803388 -3.09229 -4.30278
87 1 12.3586 6.16278 10.7916 0.803383 -3.0923 -4.30278
88 1 14.3816 4.13978 10.7916 0.80339 -3.0923 -4.30278
89 1 0.220603 4.13978 8.76858 0.803385 -3.0923 -4.30278
90 1 2.2436 6.16278 8.76858 0.803387 -3.0923 -4.30278
91 1 0.220603 6.16278 10.7916 0.803397 -3.0923 -4.30278
92 1 2.2436 4.13978 10.7916 0.803389 -3.09229 -4.30278
93 1 4.2666 4.13978 8.76858 0.803392 -3.09229 -4.30278
94 1 6.2896 6.16278 8.76858 0.803389 -3.0923 -4.30278
95 1 4.2666 6.16278 10.7916 0.803396 -3.0923 -4.30278
96 1 6.2896 4.13978 10.7916 0.803393 -3.09229 -4.30279
97 1 8.3126 8.18578 8.76858 0.803386 -3.09229 -4.30278
98 1 10.3356 10.2088 8.76858 0.803389 -3.09229 -4.30278
99 1 8.3126 10.2088 10.7916 0.803394 -3.0923 -4.30278
100 1 10.3356 8.18578 10.7916 0.803392 -3.09229 -4.30277
101 1 12.3586 8.18578 8.76858 0.803397 -3.09229 -4.30278
102 1 14.3816 10.2088 8.76858 0.803389 -3.0923 -4.30278
103 1 12.3586 10.2088 10.7916 0.803394 -3.0923 -4.30278
104 1 14.3816 8.18578 10.7916 0.80339 -3.0923 -4.30278
105 1 0.220603 8.18578 8.76858 0.803391 -3.0923 -4.30278
106 1 2.2436 10.2088 8.76858 0.80339 -3.09229 -4.30278
107 1 0.220603 10.2088 10.7916 0.803387 -3.0923 -4.30278
108 1 2.2436 8.18578 10.7916 0.80339 -3.0923 -4.30278
109 1 4.2666 8.18578 8.76858 0.803397 -3.0923 -4.30279
110 1 6.2896 10.2088 8.76858 0.803389 -3.0923 -4.30279
111 1 4.2666 10.2088 10.7916 0.803384 -3.0923 -4.30278
112 1 6.2896 8.18578 10.7916 0.803388 -3.0923 -4.30278
113 1 8.3126 12.2318 8.76858 0.803392 -3.0923 -4.30278
114 1 10.3356 14.2548 8.76858 0.803394 -3.0923 -4.30278
115 1 8.3126 14.2548 10.7916 0.803393 -3.09229 -4.30278
116 1 10.3356 12.2318 10.7916 0.803396 -3.09229 -4.30278
117 1 12.3586 12.2318 8.76858 0.803387 -3.09229 -4.30278
118 1 14.3816 14.2548 8.76858 0.803388 -3.0923 -4.30278
119 1 12.3586 14.2548 10.7916 0.803394 -3.0923 -4.30279
120 1 14.3816 12.2318 10.7916 0.803388 -3.09229 -4.30277
121 1 0.220603 12.2318 8.76858 0.803387 -3.0923 -4.30278
122 1 2.2436 14.2548 8.76858 0.803391 -3.0923 -4.30278
123 1 0.220603 14.2548 10.7916 0.80339 -3.0923 -4.30277
124 1 2.2436 12.2318 10.7916 0.803389 -3.0923 -4.30278
125 1 4.2666 12.2318 8.76858 0.80339 -3.09229 -4.30278
126 1 6.2896 14.2548 8.76858 0.803399 -3.0923 -4.30278
127 1 4.2666 14.2548 10.7916 0.803392 -3.0923 -4.30278
128 1 6.2896 12.2318 10.7916 0.803387 -3.0923 -4.30278
129 1 8.3126 0.093776 12.8146 0.803392 -3.0923 -4.30277
130 1 10.3356 2.11678 12.8146 0.803383 -3.09229 -4.30278
131 1 8.3126 2.11678 14.8376 0.803389 -3.09229 -4.30278
132 1 10.3356 0.093776 14.8376 0.803388 -3.0923 -4.30278
133 1 12.3586 0.0937756 12.8146 0.803391 -3.0923 -4.30277
134 1 14.3816 2.11678 12.8146 0.803395 -3.0923 -4.30278
135 1 12.3586 2.11678 14.8376 0.80339 -3.0923 -4.30278
136 1 14.3816 0.0937756 14.8376 0.803389 -3.09229 -4.30278
137 1 0.220603 0.0937758 12.8146 0.803391 -3.0923 -4.30278
138 1 2.2436 2.11678 12.8146 0.803388 -3.09229 -4.30278
139 1 0.220603 2.11678 14.8376 0.80339 -3.0923 -4.30278
140 1 2.2436 0.0937759 14.8376 0.803394 -3.09229 -4.30278
141 1 4.2666 0.0937761 12.8146 0.803391 -3.0923 -4.30278
142 1 6.2896 2.11678 12.8146 0.803398 -3.0923 -4.30278
143 1 4.2666 2.11678 14.8376 0.803392 -3.09229 -4.30278
144 1 6.2896 0.0937758 14.8376 0.803393 -3.09229 -4.30278
145 1 8.3126 4.13978 12.8146 0.803385 -3.09229 -4.30278
146 1 10.3356 6.16278 12.8146 0.803393 -3.0923 -4.30278
147 1 8.3126 6.16278 14.8376 0.803389 -3.09229 -4.30279
148 1 10.3356 4.13978 14.8376 0.803394 -3.0923 -4.30279
149 1 12.3586 4.13978 12.8146 0.803396 -3.09229 -4.30278
150 1 14.3816 6.16278 12.8146 0.803394 -3.09229 -4.30278
151 1 12.3586 6.16278 14.8376 0.80339 -3.09231 -4.30278
152 1 14.3816 4.13978 14.8376 0.803389 -3.09229 -4.30278
153 1 0.220603 4.13978 12.8146 0.803398 -3.0923 -4.30278
154 1 2.2436 6.16278 12.8146 0.803392 -3.09229 -4.30278
155 1 0.220603 6.16278 14.8376 0.803392 -3.0923 -4.30278
156 1 2.2436 4.13978 14.8376 0.803392 -3.0923 -4.30278
157 1 4.2666 4.13978 12.8146 0.80339 -3.09229 -4.30278
158 1 6.2896 6.16278 12.8146 0.803389 -3.0923 -4.30278
159 1 4.2666 6.16278 14.8376 0.803392 -3.0923 -4.30278
160 1 6.2896 4.13978 14.8376 0.803386 -3.0923 -4.30278
161 1 8.3126 8.18578 12.8146 0.803388 -3.09229 -4.30278
162 1 10.3356 10.2088 12.8146 0.803393 -3.0923 -4.30278
163 1 8.3126 10.2088 14.8376 0.803396 -3.0923 -4.30278
164 1 10.3356 8.18578 14.8376 0.803387 -3.0923 -4.30278
165 1 12.3586 8.18578 12.8146 0.803394 -3.0923 -4.30278
166 1 14.3816 10.2088 12.8146 0.803389 -3.09229 -4.30278
167 1 12.3586 10.2088 14.8376 0.803391 -3.09229 -4.30278
168 1 14.3816 8.18578 14.8376 0.803386 -3.09229 -4.30278
169 1 0.220603 8.18578 12.8146 0.803386 -3.09229 -4.30278
170 1 2.2436 10.2088 12.8146 0.803388 -3.0923 -4.30278
171 1 0.220603 10.2088 14.8376 0.80339 -3.0923 -4.30279
172 1 2.2436 8.18578 14.8376 0.803387 -3.0923 -4.30278
173 1 4.2666 8.18578 12.8146 0.80339 -3.09229 -4.30278
174 1 6.2896 10.2088 12.8146 0.803389 -3.09229 -4.30278
175 1 4.2666 10.2088 14.8376 0.803389 -3.0923 -4.30278
176 1 6.2896 8.18578 14.8376 0.803388 -3.0923 -4.30278
177 1 8.3126 12.2318 12.8146 0.803388 -3.0923 -4.30278
178 1 10.3356 14.2548 12.8146 0.803389 -3.0923 -4.30278
179 1 8.3126 14.2548 14.8376 0.803391 -3.09229 -4.30278
180 1 10.3356 12.2318 14.8376 0.803394 -3.0923 -4.30278
181 1 12.3586 12.2318 12.8146 0.80339 -3.0923 -4.30279
182 1 14.3816 14.2548 12.8146 0.803385 -3.0923 -4.30278
183 1 12.3586 14.2548 14.8376 0.803397 -3.09229 -4.30278
184 1 14.3816 12.2318 14.8376 0.803393 -3.09229 -4.30278
185 1 0.220603 12.2318 12.8146 0.803386 -3.0923 -4.30278
186 1 2.2436 14.2548 12.8146 0.803391 -3.0923 -4.30278
187 1 0.220603 14.2548 14.8376 0.803389 -3.0923 -4.30278
188 1 2.2436 12.2318 14.8376 0.803389 -3.0923 -4.30278
189 1 4.2666 12.2318 12.8146 0.803395 -3.0923 -4.30278
190 1 6.2896 14.2548 12.8146 0.803395 -3.0923 -4.30278
191 1 4.2666 14.2548 14.8376 0.803387 -3.0923 -4.30277
192 1 6.2896 12.2318 14.8376 0.803388 -3.09229 -4.30278
193 1 8.3126 0.0937759 0.676581 0.80339 -3.09229 -4.30278
194 1 10.3356 2.11678 0.676581 0.803393 -3.09229 -4.30277
195 1 8.3126 2.11678 2.69958 0.803391 -3.09229 -4.30278
196 1 10.3356 0.0937759 2.69958 0.80339 -3.0923 -4.30278
197 1 12.3586 0.0937759 0.676581 0.803394 -3.09229 -4.30278
198 1 14.3816 2.11678 0.676581 0.803395 -3.0923 -4.30279
199 1 12.3586 2.11678 2.69958 0.803387 -3.0923 -4.30278
200 1 14.3816 0.0937755 2.69958 0.803392 -3.0923 -4.30278
201 1 0.220603 0.0937756 0.676581 0.803395 -3.0923 -4.30277
202 1 2.2436 2.11678 0.676581 0.803389 -3.09229 -4.30278
203 1 0.220603 2.11678 2.69958 0.803389 -3.09229 -4.30278
204 1 2.2436 0.0937757 2.69958 0.803389 -3.0923 -4.30278
205 1 4.2666 0.0937757 0.676581 0.803387 -3.0923 -4.30278
206 1 6.2896 2.11678 0.676581 0.803387 -3.0923 -4.30278
207 1 4.2666 2.11678 2.69958 0.803392 -3.09229 -4.30278
208 1 6.2896 0.0937759 2.69958 0.803389 -3.09229 -4.30278
209 1 8.3126 4.13978 0.676581 0.803393 -3.0923 -4.30278
210 1 10.3356 6.16278 0.676581 0.803395 -3.0923 -4.30279
211 1 8.3126 6.16278 2.69958 0.803395 -3.0923 -4.30279
212 1 10.3356 4.13978 2.69958 0.803387 -3.0923 -4.30278
213 1 12.3586 4.13978 0.676581 0.803391 -3.0923 -4.30278
214 1 14.3816 6.16278 0.676581 0.803395 -3.09229 -4.30278
215 1 12.3586 6.16278 2.69958 0.80339 -3.09229 -4.30278
216 1 14.3816 4.13978 2.69958 0.803388 -3.09229 -4.30278
217 1 0.220603 4.13978 0.676581 0.80339 -3.09229 -4.30278
218 1 2.2436 6.16278 0.676581 0.803391 -3.09229 -4.30278
219 1 0.220603 6.16278 2.69958 0.803389 -3.0923 -4.30278
220 1 2.2436 4.13978 2.69958 0.803389 -3.0923 -4.30278
221 1 4.2666 4.13978 0.676581 0.803387 -3.0923 -4.30278
222 1 6.2896 6.16278 0.676581 0.803394 -3.09229 -4.30278
223 1 4.2666 6.16278 2.69958 0.803394 -3.0923 -4.30278
224 1 6.2896 4.13978 2.69958 0.803395 -3.0923 -4.30278
225 1 8.3126 8.18578 0.67658 0.803391 -3.0923 -4.30278
226 1 10.3356 10.2088 0.676581 0.80339 -3.0923 -4.30279
227 1 8.3126 10.2088 2.69958 0.803388 -3.0923 -4.30278
228 1 10.3356 8.18578 2.69958 0.803389 -3.09229 -4.30278
229 1 12.3586 8.18578 0.67658 0.803387 -3.0923 -4.30278
230 1 14.3816 10.2088 0.676581 0.803389 -3.0923 -4.30278
231 1 12.3586 10.2088 2.69958 0.803391 -3.0923 -4.30278
232 1 14.3816 8.18578 2.69958 0.80339 -3.0923 -4.30278
233 1 0.220603 8.18578 0.676581 0.803391 -3.09229 -4.30278
234 1 2.2436 10.2088 0.676581 0.803386 -3.0923 -4.30278
235 1 0.220603 10.2088 2.69958 0.80339 -3.0923 -4.30278
236 1 2.2436 8.18578 2.69958 0.803396 -3.09229 -4.30278
237 1 4.2666 8.18578 0.67658 0.803391 -3.0923 -4.30278
238 1 6.2896 10.2088 0.67658 0.803397 -3.0923 -4.30278
239 1 4.2666 10.2088 2.69958 0.803384 -3.0923 -4.30278
240 1 6.2896 8.18578 2.69958 0.803385 -3.09229 -4.30278
241 1 8.3126 12.2318 0.676581 0.803398 -3.0923 -4.30277
242 1 10.3356 14.2548 0.676581 0.803394 -3.09229 -4.30278
243 1 8.3126 14.2548 2.69958 0.803381 -3.0923 -4.30278
244 1 10.3356 12.2318 2.69958 0.80339 -3.09229 -4.30278
245 1 12.3586 12.2318 0.676581 0.803391 -3.0923 -4.30279
246 1 14.3816 14.2548 0.676581 0.803383 -3.0923 -4.30278
247 1 12.3586 14.2548 2.69958 0.803389 -3.09229 -4.30278
248 1 14.3816 12.2318 2.69958 0.803396 -3.0923 -4.30278
249 1 0.220603 12.2318 0.676581 0.803392 -3.0923 -4.30277
250 1 2.2436 14.2548 0.676581 0.803392 -3.0923 -4.30278
251 1 0.220603 14.2548 2.69958 0.803392 -3.0923 -4.30278
252 1 2.2436 12.2318 2.69958 0.80339 -3.09229 -4.30278
253 1 4.2666 12.2318 0.676581 0.803388 -3.0923 -4.30278
254 1 6.2896 14.2548 0.676581 0.803391 -3.09229 -4.30278
255 1 4.2666 14.2548 2.69958 0.803388 -3.0923 -4.30278
256 1 6.2896 12.2318 2.69958 0.803387 -3.09229 -4.30278
