ITEM: TIMESTEP
196000000
ITEM: NUMBER OF ATOMS
256
ITEM: BOX BOUNDS pp pp pp
0.0000000000000000e+00 1.6184000000000001e+01
0.0000000000000000e+00 1.6184000000000001e+01
0.0000000000000000e+00 1.6184000000000001e+01
ITEM: ATOMS id type x y z vx vy vz
1 1 6.4502 9.42658 9.63032 0.807446 -3.10792 -4.32452
2 1 8.4732 11.4496 9.63032 0.807447 -3.10792 -4.32451
3 1 6.4502 11.4496 11.6533 0.807449 -3.10791 -4.32452
4 1 8.4732 9.42658 11.6533 0.807448 -3.10792 -4.32451
5 1 10.4962 9.42658 9.63032 0.807446 -3.10792 -4.32452
6 1 12.5192 11.4496 9.63032 0.807447 -3.10791 -4.32452
7 1 10.4962 11.4496 11.6533 0.807449 -3.10792 -4.32451
8 1 12.5192 9.42658 11.6533 0.807453 -3.10792 -4.32452
9 1 14.5422 9.42658 9.63032 0.807447 -3.10791 -4.32452
10 1 0.3812 11.4496 9.63032 0.807452 -3.10792 -4.32452
11 1 14.5422 11.4496 11.6533 0.80744 -3.10793 -4.32452
12 1 0.3812 9.42658 11.6533 0.807452 -3.10792 -4.32452
13 1 2.4042 9.42658 9.63032 0.807451 -3.10791 -4.32451
14 1 4.4272 11.4496 9.63032 0.807452 -3.10791 -4.32452
15 1 2.4042 11.4496 11.6533 0.807446 -3.10791 -4.32452
16 1 4.4272 9.42658 11.6533 0.807452 -3.10791 -4.32452
17 1 6.4502 13.4726 9.63032 0.807451 -3.10791 -4.32452
18 1 8.4732 15.4956 9.63032 0.807446 -3.10791 -4.32452
19 1 6.4502 15.4956 11.6533 0.807446 -3.10792 -4.32452
20 1 8.4732 13.4726 11.6533 0.807447 -3.10791 -4.32451
21 1 10.4962 13.4726 9.63032 0.807452 -3.10792 -4.32451
22 1 12.5192 15.4956 9.63032 0.80745 -3.10792 -4.32452
23 1 10.4962 15.4956 11.6533 0.807446 -3.10792 -4.32451
24 1 12.5192 13.4726 11.6533 0.807448 -3.10791 -4.32452
25 1 14.5422 13.4726 9.63032 0.807446 -3.10791 -4.32451
26 1 0.3812 15.4956 9.63032 0.80745 -3.10792 -4.32451
27 1 14.5422 15.4956 11.6533 0.807446 -3.10792 -4.32452
28 1 0.3812 13.4726 11.6533 0.807446 -3.10792 -4.32451
29 1 2.4042 13.4726 9.63032 0.807444 -3.10792 -4.32452
30 1 4.4272 15.4956 9.63032 0.807455 -3.10792 -4.32452
31 1 2.4042 15.4956 11.6533 0.807448 -3.10791 -4.32452
32 1 4.4272 13.4726 11.6533 0.807447 -3.10792 -4.32453
33 1 6.4502 1.33458 9.63032 0.807449 -3.10791 -4.32451
34 1 8.4732 3.35758 9.63032 0.807444 -3.10791 -4.32451
35 1 6.4502 3.35758 11.6533 0.80745 -3.10791 -4.32452
36 1 8.4732 1.33458 11.6533 0.807451 -3.10792 -4.32452
37 1 10.4962 1.33458 9.63032 0.807448 -3.10791 -4.32452
38 1 12.5192 3.35758 9.63032 0.807453 -3.10792 -4.32452
39 1 10.4962 3.35758 11.6533 0.807447 -3.10792 -4.32452
40 1 12.5192 1.33458 11.6533 0.807451 -3.10792 -4.32452
41 1 14.5422 1.33458 9.63032 0.807451 -3.10792 -4.32452
42 1 0.3812 3.35758 9.63032 0.807446 -3.10792 -4.32451
43 1 14.5422 3.35758 11.6533 0.807447 -3.10792 -4.32451
44 1 0.3812 1.33458 11.6533 0.80745 -3.10792 -4.32452
45 1 2.4042 1.33458 9.63032 0.807449 -3.10792 -4.32451
46 1 4.4272 3.35758 9.63032 0.807449 -3.10792 -4.32451
47 1 2.4042 3.35758 11.6533 0.807451 -3.10791 -4.32451
48 1 4.4272 1.33458 11.6533 0.807445 -3.10792 -4.32452
49 1 6.4502 5.38058 9.63032 0.807447 -3.10792 -4.32451
50 1 8.4732 7.40358 9.63032 0.807445 -3.10793 -4.32452
51 1 6.4502 7.40358 11.6533 0.807448 -3.10792 -4.32452
52 1 8.4732 5.38058 11.6533 0.807448 -3.10792 -4.32452
53 1 10.4962 5.38058 9.63032 0.807447 -3.10792 -4.32451
54 1 12.5192 7.40358 9.63032 0.807452 -3.10792 -4.32451
55 1 10.4962 7.40358 11.6533 0.807452 -3.10792 -4.32451
56 1 12.5192 5.38058 11.6533 0.807445 -3.10792 -4.32452
57 1 14.5422 5.38058 9.63032 0.807454 -3.10792 -4.32451
58 1 0.3812 7.40358 9.63032 0.807448 -3.10792 -4.32451
59 1 14.5422 7.40358 11.6533 0.807446 -3.10792 -4.32451
60 1 0.3812 5.38058 11.6533 0.807451 -3.10792 -4.32452
61 1 2.4042 5.38058 9.63032 0.80744 -3.10791 -4.32452
62 1 4.4272 7.40358 9.63032 0.807444 -3.10792 -4.32452
63 1 2.4042 7.40358 11.6533 0.807449 -3.10792 -4.32452
64 1 4.4272 5.38058 11.6533 0.807448 -3.10792 -4.32452
65 1 6.4502 9.42658 13.6763 0.807456 -3.10792 -4.32452
66 1 8.4732 11.4496 13.6763 0.807448 -3.10792 -4.32452
67 1 6.4502 11.4496 -0.484677 0.807449 -3.10792 -4.32452
68 1 8.4732 9.42658 -0.484677 0.807449 -3.10792 -4.32451
69 1 10.4962 9.42658 13.6763 0.807449 -3.10791 -4.32452
70 1 12.5192 11.4496 13.6763 0.807448 -3.10792 -4.32451
71 1 10.4962 11.4496 -0.484677 0.80745 -3.10792 -4.32451
72 1 12.5192 9.42658 -0.484677 0.807447 -3.10792 -4.32452
73 1 14.5422 9.42658 13.6763 0.807451 -3.10792 -4.32452
74 1 0.3812 11.4496 13.6763 0.807449 -3.10791 -4.32452
75 1 14.5422 11.4496 -0.484677 0.807451 -3.10792 -4.32452
76 1 0.3812 9.42658 -0.484677 0.807454 -3.10792 -4.32452
77 1 2.4042 9.42658 13.6763 0.807449 -3.10792 -4.32451
78 1 4.4272 11.4496 13.6763 0.807455 -3.10792 -4.32452
79 1 2.4042 11.4496 -0.484677 0.807457 -3.10792 -4.32451
80 1 4.4272 9.42658 -0.484677 0.807447 -3.10792 -4.32451
81 1 6.4502 13.4726 13.6763 0.807454 -3.10792 -4.32452
82 1 8.4732 15.4956 13.6763 0.80745 -3.10791 -4.32452
83 1 6.4502 15.4956 -0.484677 0.807449 -3.10791 -4.32452
84 1 8.4732 13.4726 -0.484677 0.807452 -3.10792 -4.32452
85 1 10.4962 13.4726 13.6763 0.807447 -3.10791 -4.32452
86 1 12.5192 15.4956 13.6763 0.807446 -3.10792 -4.32451
87 1 10.4962 15.4956 -0.484677 0.807444 -3.10791 -4.32451
88 1 12.5192 13.4726 -0.484677 0.807447 -3.10792 -4.32451
89 1 14.5422 13.4726 13.6763 0.807439 -3.10792 -4.32452
90 1 0.3812 15.4956 13.6763 0.807454 -3.10792 -4.32452
91 1 14.5422 15.4956 -0.484677 0.807449 -3.10791 -4.32452
92 1 0.3812 13.4726 -0.484677 0.807451 -3.10792 -4.32452
93 1 2.4042 13.4726 13.6763 0.807452 -3.10791 -4.32452
94 1 4.4272 15.4956 13.6763 0.807456 -3.10792 -4.32452
95 1 2.4042 15.4956 -0.484677 0.807442 -3.10792 -4.32452
96 1 4.4272 13.4726 -0.484677 0.807451 -3.10792 -4.32452
97 1 6.4502 1.33458 13.6763 0.807449 -3.10792 -4.32452
98 1 8.4732 3.35758 13.6763 0.807451 -3.10792 -4.32452
99 1 6.4502 3.35758 -0.484677 0.807455 -3.10792 -4.32452
100 1 8.4732 1.33458 -0.484677 0.807447 -3.10792 -4.32451
101 1 10.4962 1.33458 13.6763 0.807451 -3.10791 -4.32452
102 1 12.5192 3.35758 13.6763 0.80745 -3.10792 -4.32452
103 1 10.4962 3.35758 -0.484677 0.807449 -3.10793 -4.32452
104 1 12.5192 1.33458 -0.484677 0.807448 -3.10792 -4.32452
105 1 14.5422 1.33458 13.6763 0.807449 -3.10792 -4.32451
106 1 0.3812 3.35758 13.6763 0.807442 -3.10792 -4.32451
107 1 14.5422 3.35758 -0.484677 0.807445 -3.10792 -4.32452
108 1 0.3812 1.33458 -0.484677 0.807447 -3.10792 -4.32452
109 1 2.4042 1.33458 13.6763 0.807444 -3.10791 -4.32452
110 1 4.4272 3.35758 13.6763 0.807444 -3.10791 -4.32452
111 1 2.4042 3.35758 -0.484677 0.807449 -3.10792 -4.32451
112 1 4.4272 1.33458 -0.484677 0.807448 -3.10792 -4.32452
113 1 6.4502 5.38058 13.6763 0.807448 -3.10791 -4.32452
114 1 8.4732 7.40358 13.6763 0.80745 -3.10792 -4.32452
115 1 6.4502 7.40358 -0.484677 0.807455 -3.10792 -4.32451
116 1 8.4732 5.38058 -0.484677 0.807449 -3.10792 -4.32452
117 1 10.4962 5.38058 13.6763 0.807453 -3.10791 -4.32452
118 1 12.5192 7.40358 13.6763 0.807449 -3.10793 -4.32451
119 1 10.4962 7.40358 -0.484677 0.807443 -3.10792 -4.32452
120 1 12.5192 5.38058 -0.484677 0.807454 -3.10792 -4.32452
121 1 14.5422 5.38058 13.6763 0.807449 -3.10792 -4.32452
122 1 0.3812 7.40358 13.6763 0.807447 -3.10792 -4.32452
123 1 14.5422 7.40358 -0.484677 0.807444 -3.10791 -4.32452
124 1 0.3812 5.38058 -0.484677 0.807449 -3.10792 -4.32452
125 1 2.4042 5.38058 13.6763 0.807449 -3.10792 -4.32451
126 1 4.4272 7.40358 13.6763 0.807446 -3.10792 -4.32452
127 1 2.4042 7.40358 -0.484677 0.807448 -3.10792 -4.32452
128 1 4.4272 5.38058 -0.484677 0.807452 -3.10792 -4.32451
129 1 6.4502 9.42658 1.53832 0.807449 -3.10792 -4.32452
130 1 8.4732 11.4496 1.53832 0.807445 -3.10792 -4.32451
131 1 6.4502 11.4496 3.56132 0.80745 -3.10792 -4.32452
132 1 8.4732 9.42658 3.56132 0.807445 -3.10792 -4.32452
133 1 10.4962 9.42658 1.53832 0.807448 -3.10792 -4.32452
134 1 12.5192 11.4496 1.53832 0.807445 -3.10792 -4.32452
135 1 10.4962 11.4496 3.56132 0.807455 -3.10792 -4.32452
136 1 12.5192 9.42658 3.56132 0.807449 -3.10792 -4.32451
137 1 14.5422 9.42658 1.53832 0.807453 -3.10792 -4.32452
138 1 0.3812 11.4496 1.53832 0.807453 -3.10791 -4.32452
139 1 14.5422 11.4496 3.56132 0.807456 -3.10791 -4.32452
140 1 0.3812 9.42658 3.56132 0.807448 -3.10792 -4.32452
141 1 2.4042 9.42658 1.53832 0.807453 -3.10792 -4.32452
142 1 4.4272 11.4496 1.53832 0.807447 -3.10792 -4.32452
143 1 2.4042 11.4496 3.56132 0.807452 -3.10792 -4.32452
144 1 4.4272 9.42658 3.56132 0.80745 -3.10792 -4.32451
145 1 6.4502 13.4726 1.53832 0.807444 -3.10792 -4.32452
146 1 8.4732 15.4956 1.53832 0.807448 -3.10792 -4.32451
147 1 6.4502 15.4956 3.56132 0.807448 -3.10792 -4.32452
148 1 8.4732 13.4726 3.56132 0.807453 -3.10792 -4.32452
149 1 10.4962 13.4726 1.53832 0.807453 -3.10792 -4.32452
150 1 12.5192 15.4956 1.53832 0.807445 -3.10792 -4.32452
151 1 10.4962 15.4956 3.56132 0.807457 -3.10792 -4.32452
152 1 12.5192 13.4726 3.56132 0.807456 -3.10792 -4.32452
153 1 14.5422 13.4726 1.53832 0.807456 -3.10792 -4.32452
154 1 0.3812 15.4956 1.53832 0.807453 -3.10791 -4.32451
155 1 14.5422 15.4956 3.56132 0.807452 -3.10792 -4.32452
156 1 0.3812 13.4726 3.56132 0.807441 -3.10792 -4.32452
157 1 2.4042 13.4726 1.53832 0.807449 -3.10792 -4.32452
158 1 4.4272 15.4956 1.53832 0.807448 -3.10792 -4.32452
159 1 2.4042 15.4956 3.56132 0.807439 -3.10792 -4.32451
160 1 4.4272 13.4726 3.56132 0.807449 -3.10792 -4.32451
161 1 6.4502 1.33458 1.53832 0.807448 -3.10792 -4.32452
162 1 8.4732 3.35758 1.53832 0.807449 -3.10792 -4.32452
163 1 6.4502 3.35758 3.56132 0.807449 -3.10792 -4.32451
164 1 8.4732 1.33458 3.56132 0.807449 -3.10792 -4.32452
165 1 10.4962 1.33458 1.53832 0.807455 -3.10793 -4.32452
166 1 12.5192 3.35758 1.53832 0.80745 -3.10791 -4.32452
167 1 10.4962 3.35758 3.56132 0.807445 -3.10792 -4.32452
168 1 12.5192 1.33458 3.56132 0.807447 -3.10792 -4.32452
169 1 14.5422 1.33458 1.53832 0.807448 -3.10791 -4.32451
170 1 0.3812 3.35758 1.53832 0.807446 -3.10792 -4.32452
171 1 14.5422 3.35758 3.56132 0.807448 -3.10792 -4.32451
172 1 0.3812 1.33458 3.56132 0.807447 -3.10791 -4.32452
173 1 2.4042 1.33458 1.53832 0.807449 -3.10792 -4.32451
174 1 4.4272 3.35758 1.53832 0.807442 -3.10792 -4.32452
175 1 2.4042 3.35758 3.56132 0.807453 -3.10792 -4.32452
176 1 4.4272 1.33458 3.56132 0.807451 -3.10791 -4.32452
177 1 6.4502 5.38058 1.53832 0.80745 -3.10792 -4.32452
178 1 8.4732 7.40358 1.53832 0.807453 -3.10792 -4.32451
179 1 6.4502 7.40358 3.56132 0.807451 -3.10792 -4.32452
180 1 8.4732 5.38058 3.56132 0.807451 -3.10791 -4.32452
181 1 10.4962 5.38058 1.53832 0.807451 -3.10791 -4.32452
182 1 12.5192 7.40358 1.53832 0.807443 -3.10792 -4.32451
183 1 10.4962 7.40358 3.56132 0.807452 -3.10791 -4.32452
184 1 12.5192 5.38058 3.56132 0.807446 -3.10792 -4.32452
185 1 14.5422 5.38058 1.53832 0.807443 -3.10792 -4.32452
186 1 0.3812 7.40358 1.53832 0.80745 -3.10792 -4.32451
187 1 14.5422 7.40358 3.56132 0.80745 -3.10792 -4.32451
188 1 0.3812 5.38058 3.56132 0.807452 -3.10792 -4.32452
189 1 2.4042 5.38058 1.53832 0.807447 -3.10792 -4.32452
190 1 4.4272 7.40358 1.53832 0.807449 -3.10792 -4.32451
191 1 2.4042 7.40358 3.56132 0.807455 -3.10792 -4.32452
192 1 4.4272 5.38058 3.56132 0.807452 -3.10792 -4.32451
193 1 6.4502 9.42658 5.58432 0.807444 -3.10792 -4.32451
194 1 8.4732 11.4496 5.58432 0.807454 -3.10791 -4.32451
195 1 6.4502 11.4496 7.60732 0.80745 -3.10792 -4.32452
196 1 8.4732 9.42658 7.60732 0.807451 -3.10792 -4.32451
197 1 10.4962 9.42658 5.58432 0.807443 -3.10791 -4.32452
198 1 12.5192 11.4496 5.58432 0.807455 -3.10792 -4.32452
199 1 10.4962 11.4496 7.60732 0.807447 -3.10792 -4.32452
200 1 12.5192 9.42658 7.60732 0.807453 -3.10792 -4.32452
201 1 14.5422 9.42658 5.58432 0.807445 -3.10792 -4.32452
202 1 0.3812 11.4496 5.58432 0.807445 -3.10791 -4.32452
203 1 14.5422 11.4496 7.60732 0.807448 -3.10792 -4.32451
204 1 0.3812 9.42658 7.60732 0.807451 -3.10792 -4.32452
205 1 2.4042 9.42658 5.58432 0.807444 -3.10792 -4.32452
206 1 4.4272 11.4496 5.58432 0.807445 -3.10792 -4.32452
207 1 2.4042 11.4496 7.60732 0.807448 -3.10791 -4.32451
208 1 4.4272 9.42658 7.60732 0.807447 -3.10792 -4.32452
209 1 6.4502 13.4726 5.58432 0.807452 -3.10791 -4.32452
210 1 8.4732 15.4956 5.58432 0.807444 -3.10792 -4.32452
211 1 6.4502 15.4956 7.60732 0.807451 -3.10792 -4.32452
212 1 8.4732 13.4726 7.60732 0.807453 -3.10792 -4.32452
213 1 10.4962 13.4726 5.58432 0.80745 -3.10792 -4.32451
214 1 12.5192 15.4956 5.58432 0.807452 -3.10792 -4.32452
215 1 10.4962 15.4956 7.60732 0.807445 -3.10792 -4.32452
216 1 12.5192 13.4726 7.60732 0.807445 -3.10792 -4.32452
217 1 14.5422 13.4726 5.58432 0.807456 -3.10792 -4.32452
218 1 0.3812 15.4956 5.58432 0.807448 -3.10792 -4.32452
219 1 14.5422 15.4956 7.60732 0.807448 -3.10792 -4.32452
220 1 0.3812 13.4726 7.60732 0.807452 -3.10792 -4.32452
221 1 2.4042 13.4726 5.58432 0.807445 -3.10792 -4.32451
222 1 4.4272 15.4956 5.58432 0.807447 -3.10792 -4.32452
223 1 2.4042 15.4956 7.60732 0.807453 -3.10792 -4.32451
224 1 4.4272 13.4726 7.60732 0.807443 -3.10792 -4.32452
225 1 6.4502 1.33458 5.58432 0.807451 -3.10792 -4.32451
226 1 8.4732 3.35758 5.58432 0.807451 -3.10792 -4.32453
227 1 6.4502 3.35758 7.60732 0.807447 -3.10792 -4.32452
228 1 8.4732 1.33458 7.60732 0.807448 -3.10792 -4.32451
229 1 10.4962 1.33458 5.58432 0.807443 -3.10792 -4.32452
230 1 12.5192 3.35758 5.58432 0.80745 -3.10791 -4.32452
231 1 10.4962 3.35758 7.60732 0.807445 -3.10792 -4.32452
232 1 12.5192 1.33458 7.60732 0.807453 -3.10792 -4.32452
233 1 14.5422 1.33458 5.58432 0.80745 -3.10792 -4.32452
234 1 0.3812 3.35758 5.58432 0.807449 -3.10792 -4.32452
235 1 14.5422 3.35758 7.60732 0.807447 -3.10792 -4.32451
236 1 0.3812 1.33458 7.60732 0.807454 -3.10792 -4.32452
237 1 2.4042 1.33458 5.58432 0.807446 -3.10792 -4.32452
238 1 4.4272 3.35758 5.58432 0.807452 -3.10791 -4.32452
239 1 2.4042 3.35758 7.60732 0.807449 -3.10791 -4.32452
240 1 4.4272 1.33458 7.60732 0.807449 -3.10792 -4.32452
241 1 6.4502 5.38058 5.58432 0.807447 -3.10792 -4.32451
242 1 8.4732 7.40358 5.58432 0.807449 -3.10791 -4.32451
243 1 6.4502 7.40358 7.60732 0.807448 -3.10791 -4.32452
244 1 8.4732 5.38058 7.60732 0.807451 -3.10792 -4.32452
245 1 10.4962 5.38058 5.58432 0.80745 -3.10792 -4.32452
246 1 12.5192 7.40358 5.58432 0.807449 -3.10792 -4.32452
247 1 10.4962 7.40358 7.60732 0.807447 -3.10792 -4.32451
248 1 12.5192 5.38058 7.60732 0.807445 -3.10792 -4.32451
249 1 14.5422 5.38058 5.58432 0.807444 -3.10792 -4.32452
250 1 0.3812 7.40358 5.58432 0.807448 -3.10792 -4.32452
251 1 14.5422 7.40358 7.60732 0.807451 -3.10791 -4.32452
252 1 0.3812 5.38058 7.60732 0.807453 -3.10792 -4.32452
253 1 2.4042 5.38058 5.58432 0.807454 -3.10792 -4.32452
254 1 4.4272 7.40358 5.58432 0.807449 -3.10792 -4.32452
255 1 2.4042 7.40358 7.60732 0.807452 -3.10792 -4.32452
256 1 4.4272 5.38058 7.60732 0.807447 -3.10792 -4.32452
